nqpoint: 202    
npath: 2      
segment_nqpoint:
- 101
- 101
reciprocal_lattice:
- [  -0.19477193,   0.19477193,   0.19477193 ] # a*
- [   0.19477193,  -0.19477193,   0.19477193 ] # b*
- [   0.19477193,   0.19477193,  -0.19477193 ] # c*
natom: 2      
lattice:
- [     0.0000000000000000,     2.5671049901180245,     2.5671049901180245 ] # a
- [     2.5671049901180245,     0.0000000000000000,     2.5671049901180245 ] # b
- [     2.5671049901180245,     2.5671049901180245,     0.0000000000000000 ] # c
atoms:
- symbol: Sr # 1
  position: [  0.0000000000000000,  0.0000000000000000,  0.0000000000000000 ]
  mass: 87.620000
- symbol: O  # 2
  position: [  0.5000000000000000,  0.5000000000000000,  0.5000000000000000 ]
  mass: 15.999400
supercell_matrix:
- [    4,    0,    0 ]
- [    0,    4,    0 ]
- [    0,    0,    4 ]

phonon:
- q-position: [    0.5000000,    0.0000000,    0.5000000 ]
  distance:    0.0000000
  label: 'X'
  band:
  - # 1
    frequency:    3.7353237041
  - # 2
    frequency:    3.7353237041
  - # 3
    frequency:    5.6528110185
  - # 4
    frequency:    7.0267502962
  - # 5
    frequency:    7.0267502962
  - # 6
    frequency:    9.2490792025

- q-position: [    0.4950000,    0.0000000,    0.4950000 ]
  distance:    0.0019477
  band:
  - # 1
    frequency:    3.7352168770
  - # 2
    frequency:    3.7352168770
  - # 3
    frequency:    5.6523350206
  - # 4
    frequency:    7.0277642317
  - # 5
    frequency:    7.0277642317
  - # 6
    frequency:    9.2493748091

- q-position: [    0.4900000,    0.0000000,    0.4900000 ]
  distance:    0.0038954
  band:
  - # 1
    frequency:    3.7348953738
  - # 2
    frequency:    3.7348953738
  - # 3
    frequency:    5.6509067179
  - # 4
    frequency:    7.0308006075
  - # 5
    frequency:    7.0308006075
  - # 6
    frequency:    9.2502584611

- q-position: [    0.4850000,    0.0000000,    0.4850000 ]
  distance:    0.0058432
  band:
  - # 1
    frequency:    3.7343561412
  - # 2
    frequency:    3.7343561412
  - # 3
    frequency:    5.6485251861
  - # 4
    frequency:    7.0358431703
  - # 5
    frequency:    7.0358431703
  - # 6
    frequency:    9.2517206716

- q-position: [    0.4800000,    0.0000000,    0.4800000 ]
  distance:    0.0077909
  band:
  - # 1
    frequency:    3.7335941286
  - # 2
    frequency:    3.7335941286
  - # 3
    frequency:    5.6451888913
  - # 4
    frequency:    7.0428649574
  - # 5
    frequency:    7.0428649574
  - # 6
    frequency:    9.2537456851

- q-position: [    0.4750000,    0.0000000,    0.4750000 ]
  distance:    0.0097386
  band:
  - # 1
    frequency:    3.7326023432
  - # 2
    frequency:    3.7326023432
  - # 3
    frequency:    5.6408957007
  - # 4
    frequency:    7.0518284861
  - # 5
    frequency:    7.0518284861
  - # 6
    frequency:    9.2563115608

- q-position: [    0.4700000,    0.0000000,    0.4700000 ]
  distance:    0.0116863
  band:
  - # 1
    frequency:    3.7313719268
  - # 2
    frequency:    3.7313719268
  - # 3
    frequency:    5.6356428965
  - # 4
    frequency:    7.0626860135
  - # 5
    frequency:    7.0626860135
  - # 6
    frequency:    9.2593902880

- q-position: [    0.4650000,    0.0000000,    0.4650000 ]
  distance:    0.0136340
  band:
  - # 1
    frequency:    3.7298922478
  - # 2
    frequency:    3.7298922478
  - # 3
    frequency:    5.6294271937
  - # 4
    frequency:    7.0753798661
  - # 5
    frequency:    7.0753798661
  - # 6
    frequency:    9.2629479335

- q-position: [    0.4600000,    0.0000000,    0.4600000 ]
  distance:    0.0155818
  band:
  - # 1
    frequency:    3.7281510099
  - # 2
    frequency:    3.7281510099
  - # 3
    frequency:    5.6222447612
  - # 4
    frequency:    7.0898428334
  - # 5
    frequency:    7.0898428334
  - # 6
    frequency:    9.2669448182

- q-position: [    0.4550000,    0.0000000,    0.4550000 ]
  distance:    0.0175295
  band:
  - # 1
    frequency:    3.7261343710
  - # 2
    frequency:    3.7261343710
  - # 3
    frequency:    5.6140912460
  - # 4
    frequency:    7.1059986220
  - # 5
    frequency:    7.1059986220
  - # 6
    frequency:    9.2713357234

- q-position: [    0.4500000,    0.0000000,    0.4500000 ]
  distance:    0.0194772
  band:
  - # 1
    frequency:    3.7238270714
  - # 2
    frequency:    3.7238270714
  - # 3
    frequency:    5.6049617998
  - # 4
    frequency:    7.1237623629
  - # 5
    frequency:    7.1237623629
  - # 6
    frequency:    9.2760701234

- q-position: [    0.4450000,    0.0000000,    0.4450000 ]
  distance:    0.0214249
  band:
  - # 1
    frequency:    3.7212125667
  - # 2
    frequency:    3.7212125667
  - # 3
    frequency:    5.5948511081
  - # 4
    frequency:    7.1430411672
  - # 5
    frequency:    7.1430411672
  - # 6
    frequency:    9.2810924439

- q-position: [    0.4400000,    0.0000000,    0.4400000 ]
  distance:    0.0233726
  band:
  - # 1
    frequency:    3.7182731634
  - # 2
    frequency:    3.7182731634
  - # 3
    frequency:    5.5837534212
  - # 4
    frequency:    7.1637347234
  - # 5
    frequency:    7.1637347234
  - # 6
    frequency:    9.2863423427

- q-position: [    0.4350000,    0.0000000,    0.4350000 ]
  distance:    0.0253204
  band:
  - # 1
    frequency:    3.7149901533
  - # 2
    frequency:    3.7149901533
  - # 3
    frequency:    5.5716625863
  - # 4
    frequency:    7.1857359288
  - # 5
    frequency:    7.1857359288
  - # 6
    frequency:    9.2917550127

- q-position: [    0.4300000,    0.0000000,    0.4300000 ]
  distance:    0.0272681
  band:
  - # 1
    frequency:    3.7113439454
  - # 2
    frequency:    3.7113439454
  - # 3
    frequency:    5.5585720811
  - # 4
    frequency:    7.2089315483
  - # 5
    frequency:    7.2089315483
  - # 6
    frequency:    9.2972615021

- q-position: [    0.4250000,    0.0000000,    0.4250000 ]
  distance:    0.0292158
  band:
  - # 1
    frequency:    3.7073141925
  - # 2
    frequency:    3.7073141925
  - # 3
    frequency:    5.5444750479
  - # 4
    frequency:    7.2332028932
  - # 5
    frequency:    7.2332028932
  - # 6
    frequency:    9.3027890527

- q-position: [    0.4200000,    0.0000000,    0.4200000 ]
  distance:    0.0311635
  band:
  - # 1
    frequency:    3.7028799105
  - # 2
    frequency:    3.7028799105
  - # 3
    frequency:    5.5293643284
  - # 4
    frequency:    7.2584265134
  - # 5
    frequency:    7.2584265134
  - # 6
    frequency:    9.3082614511

- q-position: [    0.4150000,    0.0000000,    0.4150000 ]
  distance:    0.0331112
  band:
  - # 1
    frequency:    3.6980195913
  - # 2
    frequency:    3.6980195913
  - # 3
    frequency:    5.5132324980
  - # 4
    frequency:    7.2844748956
  - # 5
    frequency:    7.2844748956
  - # 6
    frequency:    9.3135993921

- q-position: [    0.4100000,    0.0000000,    0.4100000 ]
  distance:    0.0350589
  band:
  - # 1
    frequency:    3.6927113052
  - # 2
    frequency:    3.6927113052
  - # 3
    frequency:    5.4960719005
  - # 4
    frequency:    7.3112171619
  - # 5
    frequency:    7.3112171619
  - # 6
    frequency:    9.3187208519

- q-position: [    0.4050000,    0.0000000,    0.4050000 ]
  distance:    0.0370067
  band:
  - # 1
    frequency:    3.6869327958
  - # 2
    frequency:    3.6869327958
  - # 3
    frequency:    5.4778746820
  - # 4
    frequency:    7.3385197618
  - # 5
    frequency:    7.3385197618
  - # 6
    frequency:    9.3235414676

- q-position: [    0.4000000,    0.0000000,    0.4000000 ]
  distance:    0.0389544
  band:
  - # 1
    frequency:    3.6806615648
  - # 2
    frequency:    3.6806615648
  - # 3
    frequency:    5.4586328245
  - # 4
    frequency:    7.3662471529
  - # 5
    frequency:    7.3662471529
  - # 6
    frequency:    9.3279749225

- q-position: [    0.3950000,    0.0000000,    0.3950000 ]
  distance:    0.0409021
  band:
  - # 1
    frequency:    3.6738749485
  - # 2
    frequency:    3.6738749485
  - # 3
    frequency:    5.4383381778
  - # 4
    frequency:    7.3942624661
  - # 5
    frequency:    7.3942624661
  - # 6
    frequency:    9.3319333335

- q-position: [    0.3900000,    0.0000000,    0.3900000 ]
  distance:    0.0428498
  band:
  - # 1
    frequency:    3.6665501854
  - # 2
    frequency:    3.6665501854
  - # 3
    frequency:    5.4169824918
  - # 4
    frequency:    7.4224281491
  - # 5
    frequency:    7.4224281491
  - # 6
    frequency:    9.3353276401

- q-position: [    0.3850000,    0.0000000,    0.3850000 ]
  distance:    0.0447975
  band:
  - # 1
    frequency:    3.6586644764
  - # 2
    frequency:    3.6586644764
  - # 3
    frequency:    5.3945574466
  - # 4
    frequency:    7.4506065878
  - # 5
    frequency:    7.4506065878
  - # 6
    frequency:    9.3380679915

- q-position: [    0.3800000,    0.0000000,    0.3800000 ]
  distance:    0.0467453
  band:
  - # 1
    frequency:    3.6501950370
  - # 2
    frequency:    3.6501950370
  - # 3
    frequency:    5.3710546814
  - # 4
    frequency:    7.4786606997
  - # 5
    frequency:    7.4786606997
  - # 6
    frequency:    9.3400641317

- q-position: [    0.3750000,    0.0000000,    0.3750000 ]
  distance:    0.0486930
  band:
  - # 1
    frequency:    3.6411191435
  - # 2
    frequency:    3.6411191435
  - # 3
    frequency:    5.3464658232
  - # 4
    frequency:    7.5064544999
  - # 5
    frequency:    7.5064544999
  - # 6
    frequency:    9.3412257802

- q-position: [    0.3700000,    0.0000000,    0.3700000 ]
  distance:    0.0506407
  band:
  - # 1
    frequency:    3.6314141734
  - # 2
    frequency:    3.6314141734
  - # 3
    frequency:    5.3207825126
  - # 4
    frequency:    7.5338536365
  - # 5
    frequency:    7.5338536365
  - # 6
    frequency:    9.3414630067

- q-position: [    0.3650000,    0.0000000,    0.3650000 ]
  distance:    0.0525884
  band:
  - # 1
    frequency:    3.6210576404
  - # 2
    frequency:    3.6210576404
  - # 3
    frequency:    5.2939964294
  - # 4
    frequency:    7.5607258946
  - # 5
    frequency:    7.5607258946
  - # 6
    frequency:    9.3406865995

- q-position: [    0.3600000,    0.0000000,    0.3600000 ]
  distance:    0.0545361
  band:
  - # 1
    frequency:    3.6100272250
  - # 2
    frequency:    3.6100272250
  - # 3
    frequency:    5.2660993162
  - # 4
    frequency:    7.5869416702
  - # 5
    frequency:    7.5869416702
  - # 6
    frequency:    9.3388084255

- q-position: [    0.3550000,    0.0000000,    0.3550000 ]
  distance:    0.0564839
  band:
  - # 1
    frequency:    3.5983008009
  - # 2
    frequency:    3.5983008009
  - # 3
    frequency:    5.2370830005
  - # 4
    frequency:    7.6123744115
  - # 5
    frequency:    7.6123744115
  - # 6
    frequency:    9.3357417819

- q-position: [    0.3500000,    0.0000000,    0.3500000 ]
  distance:    0.0584316
  band:
  - # 1
    frequency:    3.5858564587
  - # 2
    frequency:    3.5858564587
  - # 3
    frequency:    5.2069394152
  - # 4
    frequency:    7.6369010300
  - # 5
    frequency:    7.6369010300
  - # 6
    frequency:    9.3314017382

- q-position: [    0.3450000,    0.0000000,    0.3450000 ]
  distance:    0.0603793
  band:
  - # 1
    frequency:    3.5726725257
  - # 2
    frequency:    3.5726725257
  - # 3
    frequency:    5.1756606173
  - # 4
    frequency:    7.6604022818
  - # 5
    frequency:    7.6604022818
  - # 6
    frequency:    9.3257054685

- q-position: [    0.3400000,    0.0000000,    0.3400000 ]
  distance:    0.0623270
  band:
  - # 1
    frequency:    3.5587275837
  - # 2
    frequency:    3.5587275837
  - # 3
    frequency:    5.1432388057
  - # 4
    frequency:    7.6827631191
  - # 5
    frequency:    7.6827631191
  - # 6
    frequency:    9.3185725726

- q-position: [    0.3350000,    0.0000000,    0.3350000 ]
  distance:    0.0642747
  band:
  - # 1
    frequency:    3.5440004840
  - # 2
    frequency:    3.5440004840
  - # 3
    frequency:    5.1096663361
  - # 4
    frequency:    7.7038730151
  - # 5
    frequency:    7.7038730151
  - # 6
    frequency:    9.3099253878

- q-position: [    0.3300000,    0.0000000,    0.3300000 ]
  distance:    0.0662225
  band:
  - # 1
    frequency:    3.5284703606
  - # 2
    frequency:    3.5284703606
  - # 3
    frequency:    5.0749357346
  - # 4
    frequency:    7.7236262617
  - # 5
    frequency:    7.7236262617
  - # 6
    frequency:    9.2996892885

- q-position: [    0.3250000,    0.0000000,    0.3250000 ]
  distance:    0.0681702
  band:
  - # 1
    frequency:    3.5121166407
  - # 2
    frequency:    3.5121166407
  - # 3
    frequency:    5.0390397098
  - # 4
    frequency:    7.7419222429
  - # 5
    frequency:    7.7419222429
  - # 6
    frequency:    9.2877929757

- q-position: [    0.3200000,    0.0000000,    0.3200000 ]
  distance:    0.0701179
  band:
  - # 1
    frequency:    3.4949190536
  - # 2
    frequency:    3.4949190536
  - # 3
    frequency:    5.0019711619
  - # 4
    frequency:    7.7586656848
  - # 5
    frequency:    7.7586656848
  - # 6
    frequency:    9.2741687556

- q-position: [    0.3150000,    0.0000000,    0.3150000 ]
  distance:    0.0720656
  band:
  - # 1
    frequency:    3.4768576377
  - # 2
    frequency:    3.4768576377
  - # 3
    frequency:    4.9637231907
  - # 4
    frequency:    7.7737668844
  - # 5
    frequency:    7.7737668844
  - # 6
    frequency:    9.2587528080

- q-position: [    0.3100000,    0.0000000,    0.3100000 ]
  distance:    0.0740133
  band:
  - # 1
    frequency:    3.4579127453
  - # 2
    frequency:    3.4579127453
  - # 3
    frequency:    4.9242891006
  - # 4
    frequency:    7.7871419178
  - # 5
    frequency:    7.7871419178
  - # 6
    frequency:    9.2414854432

- q-position: [    0.3050000,    0.0000000,    0.3050000 ]
  distance:    0.0759611
  band:
  - # 1
    frequency:    3.4380650449
  - # 2
    frequency:    3.4380650449
  - # 3
    frequency:    4.8836624038
  - # 4
    frequency:    7.7987128310
  - # 5
    frequency:    7.7987128310
  - # 6
    frequency:    9.2223113503

- q-position: [    0.3000000,    0.0000000,    0.3000000 ]
  distance:    0.0779088
  band:
  - # 1
    frequency:    3.4172955229
  - # 2
    frequency:    3.4172955229
  - # 3
    frequency:    4.8418368211
  - # 4
    frequency:    7.8084078129
  - # 5
    frequency:    7.8084078129
  - # 6
    frequency:    9.2011798349

- q-position: [    0.2950000,    0.0000000,    0.2950000 ]
  distance:    0.0798565
  band:
  - # 1
    frequency:    3.3955854810
  - # 2
    frequency:    3.3955854810
  - # 3
    frequency:    4.7988062797
  - # 4
    frequency:    7.8161613532
  - # 5
    frequency:    7.8161613532
  - # 6
    frequency:    9.1780450477

- q-position: [    0.2900000,    0.0000000,    0.2900000 ]
  distance:    0.0818042
  band:
  - # 1
    frequency:    3.3729165337
  - # 2
    frequency:    3.3729165337
  - # 3
    frequency:    4.7545649089
  - # 4
    frequency:    7.8219143865
  - # 5
    frequency:    7.8219143865
  - # 6
    frequency:    9.1528662046

- q-position: [    0.2850000,    0.0000000,    0.2850000 ]
  distance:    0.0837519
  band:
  - # 1
    frequency:    3.3492706014
  - # 2
    frequency:    3.3492706014
  - # 3
    frequency:    4.7091070328
  - # 4
    frequency:    7.8256144227
  - # 5
    frequency:    7.8256144227
  - # 6
    frequency:    9.1256077979

- q-position: [    0.2800000,    0.0000000,    0.2800000 ]
  distance:    0.0856997
  band:
  - # 1
    frequency:    3.3246299032
  - # 2
    frequency:    3.3246299032
  - # 3
    frequency:    4.6624271605
  - # 4
    frequency:    7.8272156671
  - # 5
    frequency:    7.8272156671
  - # 6
    frequency:    9.0962398001

- q-position: [    0.2750000,    0.0000000,    0.2750000 ]
  distance:    0.0876474
  band:
  - # 1
    frequency:    3.2989769458
  - # 2
    frequency:    3.2989769458
  - # 3
    frequency:    4.6145199731
  - # 4
    frequency:    7.8266791278
  - # 5
    frequency:    7.8266791278
  - # 6
    frequency:    9.0647378600

- q-position: [    0.2700000,    0.0000000,    0.2700000 ]
  distance:    0.0895951
  band:
  - # 1
    frequency:    3.2722945114
  - # 2
    frequency:    3.2722945114
  - # 3
    frequency:    4.5653803080
  - # 4
    frequency:    7.8239727150
  - # 5
    frequency:    7.8239727150
  - # 6
    frequency:    9.0310834915

- q-position: [    0.2650000,    0.0000000,    0.2650000 ]
  distance:    0.0915428
  band:
  - # 1
    frequency:    3.2445656425
  - # 2
    frequency:    3.2445656425
  - # 3
    frequency:    4.5150031403
  - # 4
    frequency:    7.8190713298
  - # 5
    frequency:    7.8190713298
  - # 6
    frequency:    8.9952642561

- q-position: [    0.2600000,    0.0000000,    0.2600000 ]
  distance:    0.0934905
  band:
  - # 1
    frequency:    3.2157736256
  - # 2
    frequency:    3.2157736256
  - # 3
    frequency:    4.4633835613
  - # 4
    frequency:    7.8119569454
  - # 5
    frequency:    7.8119569454
  - # 6
    frequency:    8.9572739392

- q-position: [    0.2550000,    0.0000000,    0.2550000 ]
  distance:    0.0954382
  band:
  - # 1
    frequency:    3.1859019723
  - # 2
    frequency:    3.1859019723
  - # 3
    frequency:    4.4105167541
  - # 4
    frequency:    7.8026186790
  - # 5
    frequency:    7.8026186790
  - # 6
    frequency:    8.9171127199

- q-position: [    0.2500000,    0.0000000,    0.2500000 ]
  distance:    0.0973860
  band:
  - # 1
    frequency:    3.1549343993
  - # 2
    frequency:    3.1549343993
  - # 3
    frequency:    4.3563979664
  - # 4
    frequency:    7.7910528570
  - # 5
    frequency:    7.7910528570
  - # 6
    frequency:    8.8747873352

- q-position: [    0.2450000,    0.0000000,    0.2450000 ]
  distance:    0.0993337
  band:
  - # 1
    frequency:    3.1228548070
  - # 2
    frequency:    3.1228548070
  - # 3
    frequency:    4.3010224812
  - # 4
    frequency:    7.7772630713
  - # 5
    frequency:    7.7772630713
  - # 6
    frequency:    8.8303112390

- q-position: [    0.2400000,    0.0000000,    0.2400000 ]
  distance:    0.1012814
  band:
  - # 1
    frequency:    3.0896472575
  - # 2
    frequency:    3.0896472575
  - # 3
    frequency:    4.2443855845
  - # 4
    frequency:    7.7612602285
  - # 5
    frequency:    7.7612602285
  - # 6
    frequency:    8.7837047547

- q-position: [    0.2350000,    0.0000000,    0.2350000 ]
  distance:    0.1032291
  band:
  - # 1
    frequency:    3.0552959519
  - # 2
    frequency:    3.0552959519
  - # 3
    frequency:    4.1864825312
  - # 4
    frequency:    7.7430625904
  - # 5
    frequency:    7.7430625904
  - # 6
    frequency:    8.7349952221

- q-position: [    0.2300000,    0.0000000,    0.2300000 ]
  distance:    0.1051768
  band:
  - # 1
    frequency:    3.0197852085
  - # 2
    frequency:    3.0197852085
  - # 3
    frequency:    4.1273085105
  - # 4
    frequency:    7.7226958065
  - # 5
    frequency:    7.7226958065
  - # 6
    frequency:    8.6842171391

- q-position: [    0.2250000,    0.0000000,    0.2250000 ]
  distance:    0.1071246
  band:
  - # 1
    frequency:    2.9830994421
  - # 2
    frequency:    2.9830994421
  - # 3
    frequency:    4.0668586083
  - # 4
    frequency:    7.7001929364
  - # 5
    frequency:    7.7001929364
  - # 6
    frequency:    8.6314122953

- q-position: [    0.2200000,    0.0000000,    0.2200000 ]
  distance:    0.1090723
  band:
  - # 1
    frequency:    2.9452231444
  - # 2
    frequency:    2.9452231444
  - # 3
    frequency:    4.0051277714
  - # 4
    frequency:    7.6755944635
  - # 5
    frequency:    7.6755944635
  - # 6
    frequency:    8.5766299002

- q-position: [    0.2150000,    0.0000000,    0.2150000 ]
  distance:    0.1110200
  band:
  - # 1
    frequency:    2.9061408687
  - # 2
    frequency:    2.9061408687
  - # 3
    frequency:    3.9421107706
  - # 4
    frequency:    7.6489482967
  - # 5
    frequency:    7.6489482967
  - # 6
    frequency:    8.5199267016

- q-position: [    0.2100000,    0.0000000,    0.2100000 ]
  distance:    0.1129677
  band:
  - # 1
    frequency:    2.8658372178
  - # 2
    frequency:    2.8658372178
  - # 3
    frequency:    3.8778021663
  - # 4
    frequency:    7.6203097598
  - # 5
    frequency:    7.6203097598
  - # 6
    frequency:    8.4613670964

- q-position: [    0.2050000,    0.0000000,    0.2050000 ]
  distance:    0.1149154
  band:
  - # 1
    frequency:    2.8242968377
  - # 2
    frequency:    2.8242968377
  - # 3
    frequency:    3.8121962760
  - # 4
    frequency:    7.5897415678
  - # 5
    frequency:    7.5897415678
  - # 6
    frequency:    8.4010232296

- q-position: [    0.2000000,    0.0000000,    0.2000000 ]
  distance:    0.1168632
  band:
  - # 1
    frequency:    2.7815044182
  - # 2
    frequency:    2.7815044182
  - # 3
    frequency:    3.7452871467
  - # 4
    frequency:    7.5573137875
  - # 5
    frequency:    7.5573137875
  - # 6
    frequency:    8.3389750817

- q-position: [    0.1950000,    0.0000000,    0.1950000 ]
  distance:    0.1188109
  band:
  - # 1
    frequency:    2.7374447018
  - # 2
    frequency:    2.7374447018
  - # 3
    frequency:    3.6770685321
  - # 4
    frequency:    7.5231037802
  - # 5
    frequency:    7.5231037802
  - # 6
    frequency:    8.2753105414

- q-position: [    0.1900000,    0.0000000,    0.1900000 ]
  distance:    0.1207586
  band:
  - # 1
    frequency:    2.6921025028
  - # 2
    frequency:    2.6921025028
  - # 3
    frequency:    3.6075338780
  - # 4
    frequency:    7.4871961261
  - # 5
    frequency:    7.4871961261
  - # 6
    frequency:    8.2101254619

- q-position: [    0.1850000,    0.0000000,    0.1850000 ]
  distance:    0.1227063
  band:
  - # 1
    frequency:    2.6454627387
  - # 2
    frequency:    2.6454627387
  - # 3
    frequency:    3.5366763159
  - # 4
    frequency:    7.4496825257
  - # 5
    frequency:    7.4496825257
  - # 6
    frequency:    8.1435236974

- q-position: [    0.1800000,    0.0000000,    0.1800000 ]
  distance:    0.1246540
  band:
  - # 1
    frequency:    2.5975104748
  - # 2
    frequency:    2.5975104748
  - # 3
    frequency:    3.4644886702
  - # 4
    frequency:    7.4106616781
  - # 5
    frequency:    7.4106616781
  - # 6
    frequency:    8.0756171171

- q-position: [    0.1750000,    0.0000000,    0.1750000 ]
  distance:    0.1266018
  band:
  - # 1
    frequency:    2.5482309859
  - # 2
    frequency:    2.5482309859
  - # 3
    frequency:    3.3909634774
  - # 4
    frequency:    7.3702391317
  - # 5
    frequency:    7.3702391317
  - # 6
    frequency:    8.0065255932

- q-position: [    0.1700000,    0.0000000,    0.1700000 ]
  distance:    0.1285495
  band:
  - # 1
    frequency:    2.4976098349
  - # 2
    frequency:    2.4976098349
  - # 3
    frequency:    3.3160930240
  - # 4
    frequency:    7.3285271055
  - # 5
    frequency:    7.3285271055
  - # 6
    frequency:    7.9363769586

- q-position: [    0.1650000,    0.0000000,    0.1650000 ]
  distance:    0.1304972
  band:
  - # 1
    frequency:    2.4456329719
  - # 2
    frequency:    2.4456329719
  - # 3
    frequency:    3.2398694024
  - # 4
    frequency:    7.2856442779
  - # 5
    frequency:    7.2856442779
  - # 6
    frequency:    7.8653069305

- q-position: [    0.1600000,    0.0000000,    0.1600000 ]
  distance:    0.1324449
  band:
  - # 1
    frequency:    2.3922868552
  - # 2
    frequency:    2.3922868552
  - # 3
    frequency:    3.1622845905
  - # 4
    frequency:    7.2417155409
  - # 5
    frequency:    7.2417155409
  - # 6
    frequency:    7.7934589948

- q-position: [    0.1550000,    0.0000000,    0.1550000 ]
  distance:    0.1343926
  band:
  - # 1
    frequency:    2.3375585959
  - # 2
    frequency:    2.3375585959
  - # 3
    frequency:    3.0833305561
  - # 4
    frequency:    7.1968717153
  - # 5
    frequency:    7.1968717153
  - # 6
    frequency:    7.7209842474

- q-position: [    0.1500000,    0.0000000,    0.1500000 ]
  distance:    0.1363404
  band:
  - # 1
    frequency:    2.2814361276
  - # 2
    frequency:    2.2814361276
  - # 3
    frequency:    3.0029993894
  - # 4
    frequency:    7.1512492266
  - # 5
    frequency:    7.1512492266
  - # 6
    frequency:    7.6480411865

- q-position: [    0.1450000,    0.0000000,    0.1450000 ]
  distance:    0.1382881
  band:
  - # 1
    frequency:    2.2239084024
  - # 2
    frequency:    2.2239084024
  - # 3
    frequency:    2.9212834671
  - # 4
    frequency:    7.1049897374
  - # 5
    frequency:    7.1049897374
  - # 6
    frequency:    7.5747954510

- q-position: [    0.1400000,    0.0000000,    0.1400000 ]
  distance:    0.1402358
  band:
  - # 1
    frequency:    2.1649656144
  - # 2
    frequency:    2.1649656144
  - # 3
    frequency:    2.8381756488
  - # 4
    frequency:    7.0582397358
  - # 5
    frequency:    7.0582397358
  - # 6
    frequency:    7.5014195010

- q-position: [    0.1350000,    0.0000000,    0.1350000 ]
  distance:    0.1421835
  band:
  - # 1
    frequency:    2.1045994492
  - # 2
    frequency:    2.1045994492
  - # 3
    frequency:    2.7536695091
  - # 4
    frequency:    7.0111500778
  - # 5
    frequency:    7.0111500778
  - # 6
    frequency:    7.4280922342

- q-position: [    0.1300000,    0.0000000,    0.1300000 ]
  distance:    0.1441312
  band:
  - # 1
    frequency:    2.0428033611
  - # 2
    frequency:    2.0428033611
  - # 3
    frequency:    2.6677596064
  - # 4
    frequency:    6.9638754827
  - # 5
    frequency:    6.9638754827
  - # 6
    frequency:    7.3549985359

- q-position: [    0.1250000,    0.0000000,    0.1250000 ]
  distance:    0.1460789
  band:
  - # 1
    frequency:    1.9795728750
  - # 2
    frequency:    1.9795728750
  - # 3
    frequency:    2.5804417869
  - # 4
    frequency:    6.9165739824
  - # 5
    frequency:    6.9165739824
  - # 6
    frequency:    7.2823287563

- q-position: [    0.1200000,    0.0000000,    0.1200000 ]
  distance:    0.1480267
  band:
  - # 1
    frequency:    1.9149059113
  - # 2
    frequency:    1.9149059113
  - # 3
    frequency:    2.4917135261
  - # 4
    frequency:    6.8694063247
  - # 5
    frequency:    6.8694063247
  - # 6
    frequency:    7.2102781158

- q-position: [    0.1150000,    0.0000000,    0.1150000 ]
  distance:    0.1499744
  band:
  - # 1
    frequency:    1.8488031302
  - # 2
    frequency:    1.8488031302
  - # 3
    frequency:    2.4015743036
  - # 4
    frequency:    6.8225353324
  - # 5
    frequency:    6.8225353324
  - # 6
    frequency:    7.1390460333

- q-position: [    0.1100000,    0.0000000,    0.1100000 ]
  distance:    0.1519221
  band:
  - # 1
    frequency:    1.7812682919
  - # 2
    frequency:    1.7812682919
  - # 3
    frequency:    2.3100260088
  - # 4
    frequency:    6.7761252221
  - # 5
    frequency:    6.7761252221
  - # 6
    frequency:    7.0688353797

- q-position: [    0.1050000,    0.0000000,    0.1050000 ]
  distance:    0.1538698
  band:
  - # 1
    frequency:    1.7123086272
  - # 2
    frequency:    1.7123086272
  - # 3
    frequency:    2.2170733720
  - # 4
    frequency:    6.7303408845
  - # 5
    frequency:    6.7303408845
  - # 6
    frequency:    6.9998516558

- q-position: [    0.1000000,    0.0000000,    0.1000000 ]
  distance:    0.1558175
  band:
  - # 1
    frequency:    1.6419352110
  - # 2
    frequency:    1.6419352110
  - # 3
    frequency:    2.1227244167
  - # 4
    frequency:    6.6853471337
  - # 5
    frequency:    6.6853471337
  - # 6
    frequency:    6.9323020994

- q-position: [    0.0950000,    0.0000000,    0.0950000 ]
  distance:    0.1577653
  band:
  - # 1
    frequency:    1.5701633340
  - # 2
    frequency:    1.5701633340
  - # 3
    frequency:    2.0269909217
  - # 4
    frequency:    6.6413079282
  - # 5
    frequency:    6.6413079282
  - # 6
    frequency:    6.8663947240

- q-position: [    0.0900000,    0.0000000,    0.0900000 ]
  distance:    0.1597130
  band:
  - # 1
    frequency:    1.4970128615
  - # 2
    frequency:    1.4970128615
  - # 3
    frequency:    1.9298888864
  - # 4
    frequency:    6.5983855742
  - # 5
    frequency:    6.5983855742
  - # 6
    frequency:    6.8023372973

- q-position: [    0.0850000,    0.0000000,    0.0850000 ]
  distance:    0.1616607
  band:
  - # 1
    frequency:    1.4225085738
  - # 2
    frequency:    1.4225085738
  - # 3
    frequency:    1.8314389881
  - # 4
    frequency:    6.5567399148
  - # 5
    frequency:    6.5567399148
  - # 6
    frequency:    6.7403362662

- q-position: [    0.0800000,    0.0000000,    0.0800000 ]
  distance:    0.1636084
  band:
  - # 1
    frequency:    1.3466804760
  - # 2
    frequency:    1.3466804760
  - # 3
    frequency:    1.7316670171
  - # 4
    frequency:    6.5165275163
  - # 5
    frequency:    6.5165275163
  - # 6
    frequency:    6.6805956387

- q-position: [    0.0750000,    0.0000000,    0.0750000 ]
  distance:    0.1655561
  band:
  - # 1
    frequency:    1.2695640713
  - # 2
    frequency:    1.2695640713
  - # 3
    frequency:    1.6306042806
  - # 4
    frequency:    6.4779008576
  - # 5
    frequency:    6.4779008576
  - # 6
    frequency:    6.6233158341

- q-position: [    0.0700000,    0.0000000,    0.0700000 ]
  distance:    0.1675039
  band:
  - # 1
    frequency:    1.1912005854
  - # 2
    frequency:    1.1912005854
  - # 3
    frequency:    1.5282879589
  - # 4
    frequency:    6.4410075329
  - # 5
    frequency:    6.4410075329
  - # 6
    frequency:    6.5686925126

- q-position: [    0.0650000,    0.0000000,    0.0650000 ]
  distance:    0.1694516
  band:
  - # 1
    frequency:    1.1116371364
  - # 2
    frequency:    1.1116371364
  - # 3
    frequency:    1.4247614040
  - # 4
    frequency:    6.4059894752
  - # 5
    frequency:    6.4059894752
  - # 6
    frequency:    6.5169153987

- q-position: [    0.0600000,    0.0000000,    0.0600000 ]
  distance:    0.1713993
  band:
  - # 1
    frequency:    1.0309268404
  - # 2
    frequency:    1.0309268404
  - # 3
    frequency:    1.3200743653
  - # 4
    frequency:    6.3729822081
  - # 5
    frequency:    6.3729822081
  - # 6
    frequency:    6.4681671114
