16   
2    

1    
  0.0000000000000000   0.0070710678118655   0.0070710678118655
   0.0000000000   -0.0507674700   -0.0507674700
  -0.0000000000    0.0243724100    0.0243724100
   0.0156023800   -0.0025310300    0.0087686600
  -0.0156023800    0.0087686600   -0.0025310300
   0.0156023800    0.0087686600   -0.0025310300
  -0.0156023800   -0.0025310300    0.0087686600
   0.0000000000   -0.0068334600   -0.0068334600
   0.0000000000    0.0058444700    0.0058444700
  -0.0000315900   -0.0014622800   -0.0014622800
  -0.0000018500    0.0030988800    0.0030988800
   0.0000000000    0.0029930600    0.0031019000
   0.0000000000    0.0030939500    0.0024466700
   0.0000000000    0.0031019000    0.0029930600
   0.0000000000    0.0024466700    0.0030939500
   0.0000018500    0.0030988800    0.0030988800
   0.0000315900   -0.0014622800   -0.0014622800

9    
  0.0000000000000000   0.0070710678118655   0.0070710678118655
   0.0000213400   -0.0014620800   -0.0014620800
  -0.0000104000    0.0030990800    0.0030990800
   0.0000000000    0.0024704000    0.0030970600
   0.0000000000    0.0030995400    0.0029678700
   0.0000000000    0.0030970600    0.0024704000
   0.0000000000    0.0029678700    0.0030995400
   0.0000104000    0.0030990800    0.0030990800
  -0.0000213400   -0.0014620800   -0.0014620800
   0.0000000000   -0.0351116400   -0.0351116400
   0.0000000000    0.0102238400    0.0102238400
   0.0072302700   -0.0012119500    0.0029938500
  -0.0072302700    0.0029938500   -0.0012119500
   0.0072302700    0.0029938500   -0.0012119500
  -0.0072302700   -0.0012119500    0.0029938500
   0.0000000000   -0.0042367600   -0.0042367600
   0.0000000000    0.0106518700    0.0106518700
