 vasp.5.4.1 24Jun15 (build Nov 12 2015 13:14:48) complex                        
  
 executed on             IFC_2016 date 2017.02.27  15:08:44
 running on   16 total cores
 distrk:  each k-point on   16 cores,    1 groups
 distr:  one band on NCORES_PER_BAND=   8 cores,    2 groups


--------------------------------------------------------------------------------------------------------


 INCAR:
 POTCAR:    PAW_PBE Sr_sv 07Sep2000               
 POTCAR:    PAW_PBE O 08Apr2002                   
 POTCAR:    PAW_PBE Sr_sv 07Sep2000               
   VRHFIN =Sr: 4s4p5s                                                           
   LEXCH  = PE                                                                  
   EATOM  =   843.0319 eV,   61.9611 Ry                                         
                                                                                
   TITEL  = PAW_PBE Sr_sv 07Sep2000                                             
   LULTRA =        F    use ultrasoft PP ?                                      
   IUNSCR =        1    unscreen: 0-lin 1-nonlin 2-no                           
   RPACOR =    2.200    partial core radius                                     
   POMASS =   87.620; ZVAL   =   10.000    mass and valenz                      
   RCORE  =    2.500    outmost cutoff radius                                   
   RWIGS  =    4.040; RWIGS  =    2.138    wigner-seitz radius (au A)           
   ENMAX  =  229.353; ENMIN  =  172.014 eV                                      
   RCLOC  =    2.201    cutoff for local pot                                    
   LCOR   =        T    correct aug charges                                     
   LPAW   =        T    paw PP                                                  
   EAUG   =  366.804                                                            
   DEXC   =    0.000                                                            
   RMAX   =    2.547    core radius for proj-oper                               
   RAUG   =    1.300    factor for augmentation sphere                          
   RDEP   =    2.562    radius for radial grids                                 
   RDEPT  =    2.128    core radius for aug-charge                              
                                                                                
   Atomic configuration                                                         
   10 entries                                                                   
     n  l   j            E        occ.                                          
     1  0  0.50    -15934.8930   2.0000                                         
     2  0  0.50     -2157.6250   2.0000                                         
     2  1  1.50     -1917.0034   6.0000                                         
     3  0  0.50      -333.7288   2.0000                                         
     3  1  1.50      -256.0992   6.0000                                         
     3  2  2.50      -127.9971  10.0000                                         
     4  0  0.50       -40.8953   2.0000                                         
     5  0  0.50        -3.5257   1.9990                                         
     4  1  1.50       -22.8179   6.0000                                         
     4  2  1.50        -1.2815   0.0010                                         
   Description                                                                  
     l       E           TYP  RCUT    TYP  RCUT                                 
     0    -40.8953213     23  2.480                                             
     0     -3.5257161     23  2.480                                             
     1    -22.8178632     23  2.500                                             
     1    -24.1784458     23  2.500                                             
     2     -1.2814598     23  2.500                                             
     2      0.2279365     23  2.500                                             
  local pseudopotential read in
  partial core-charges read in
  partial kinetic energy density read in
  atomic valenz-charges read in
  non local Contribution for L=           0  read in
    real space projection operators read in
  non local Contribution for L=           0  read in
    real space projection operators read in
  non local Contribution for L=           1  read in
    real space projection operators read in
  non local Contribution for L=           1  read in
    real space projection operators read in
  non local Contribution for L=           2  read in
    real space projection operators read in
  non local Contribution for L=           2  read in
    real space projection operators read in
    PAW grid and wavefunctions read in
 
   number of l-projection  operators is LMAX  =           6
   number of lm-projection operators is LMMAX =          18
 
 POTCAR:    PAW_PBE O 08Apr2002                   
   VRHFIN =O: s2p4                                                              
   LEXCH  = PE                                                                  
   EATOM  =   432.3788 eV,   31.7789 Ry                                         
                                                                                
   TITEL  = PAW_PBE O 08Apr2002                                                 
   LULTRA =        F    use ultrasoft PP ?                                      
   IUNSCR =        1    unscreen: 0-lin 1-nonlin 2-no                           
   RPACOR =    1.200    partial core radius                                     
   POMASS =   16.000; ZVAL   =    6.000    mass and valenz                      
   RCORE  =    1.520    outmost cutoff radius                                   
   RWIGS  =    1.550; RWIGS  =    0.820    wigner-seitz radius (au A)           
   ENMAX  =  400.000; ENMIN  =  300.000 eV                                      
   ICORE  =        2    local potential                                         
   LCOR   =        T    correct aug charges                                     
   LPAW   =        T    paw PP                                                  
   EAUG   =  605.392                                                            
   DEXC   =    0.000                                                            
   RMAX   =    1.553    core radius for proj-oper                               
   RAUG   =    1.300    factor for augmentation sphere                          
   RDEP   =    1.550    radius for radial grids                                 
   RDEPT  =    1.329    core radius for aug-charge                              
                                                                                
   Atomic configuration                                                         
    4 entries                                                                   
     n  l   j            E        occ.                                          
     1  0  0.50      -514.6923   2.0000                                         
     2  0  0.50       -23.9615   2.0000                                         
     2  1  0.50        -9.0305   4.0000                                         
     3  2  1.50        -9.5241   0.0000                                         
   Description                                                                  
     l       E           TYP  RCUT    TYP  RCUT                                 
     0    -23.9615318     23  1.200                                             
     0     -9.5240782     23  1.200                                             
     1     -9.0304911     23  1.520                                             
     1      8.1634956     23  1.520                                             
     2     -9.5240782      7  1.500                                             
  local pseudopotential read in
  partial core-charges read in
  partial kinetic energy density read in
  kinetic energy density of atom read in
  atomic valenz-charges read in
  non local Contribution for L=           0  read in
    real space projection operators read in
  non local Contribution for L=           0  read in
    real space projection operators read in
  non local Contribution for L=           1  read in
    real space projection operators read in
  non local Contribution for L=           1  read in
    real space projection operators read in
    PAW grid and wavefunctions read in
 
   number of l-projection  operators is LMAX  =           4
   number of lm-projection operators is LMMAX =           8
 

 ----------------------------------------------------------------------------- 
|                                                                             |
|  ADVICE TO THIS USER RUNNING 'VASP/VAMP'   (HEAR YOUR MASTER'S VOICE ...):  |
|                                                                             |
|      You enforced a specific xc-type in the INCAR file,                     |
|      a different type was found on the POTCAR file                          |
|          I HOPE YOU KNOW, WHAT YOU ARE  DOING                               |
|                                                                             |
 ----------------------------------------------------------------------------- 

  PAW_PBE Sr_sv 07Sep2000               :
 energy of atom  1       EATOM= -843.0319
 kinetic energy error for atom=    0.0002 (will be added to EATOM!!)
  PAW_PBE O 08Apr2002                   :
 energy of atom  2       EATOM= -432.3788
 kinetic energy error for atom=    0.0041 (will be added to EATOM!!)
 
 
 POSCAR: Sr O                                    
  positions in direct lattice
  No initial velocities read in
 exchange correlation table for  LEXCH =       14
   RHO(1)=    0.500       N(1)  =     2000
   RHO(2)=  100.500       N(2)  =     4000
 


--------------------------------------------------------------------------------------------------------


 ion  position               nearest neighbor table
   1  0.001  0.000  0.000-  11 2.56  13 2.56  10 2.57  15 2.57  14 2.57  12 2.57   2 3.62   3 3.63
                             5 3.63   6 3.63   4 3.63   7 3.63   7 3.63   5 3.64   4 3.64   3 3.64
   2  0.500  0.000  0.000-   9 2.57  11 2.57  12 2.57  13 2.57  14 2.57  16 2.57   1 3.62   4 3.63
                             6 3.63   5 3.63   6 3.63   8 3.63   3 3.63   4 3.63   8 3.63   3 3.63
   3  0.000  0.500  0.000-   9 2.57  10 2.57  12 2.57  13 2.57  15 2.57  16 2.57   1 3.63   7 3.63
                             5 3.63   7 3.63   8 3.63   4 3.63   2 3.63   5 3.63   2 3.63   4 3.63
   4  0.500  0.500  0.000-   9 2.57  10 2.57  11 2.57  14 2.57  15 2.57  16 2.57   1 3.63   2 3.63
                             3 3.63   8 3.63   6 3.63   7 3.63   8 3.63   2 3.63   6 3.63   3 3.63
   5  0.000  0.000  0.500-   9 2.57  10 2.57  11 2.57  14 2.57  15 2.57  16 2.57   1 3.63   7 3.63
                             6 3.63   2 3.63   3 3.63   3 3.63   7 3.63   8 3.63   2 3.63   6 3.63
   6  0.500  0.000  0.500-   9 2.57  10 2.57  12 2.57  13 2.57  15 2.57  16 2.57   1 3.63   2 3.63
                             5 3.63   8 3.63   2 3.63   4 3.63   4 3.63   7 3.63   8 3.63   5 3.63
   7  0.000  0.500  0.500-   9 2.57  11 2.57  12 2.57  13 2.57  14 2.57  16 2.57   3 3.63   5 3.63
                             8 3.63   3 3.63   4 3.63   5 3.63   6 3.63   4 3.63   6 3.63   8 3.63
   8  0.500  0.500  0.500-  10 2.57  11 2.57  12 2.57  13 2.57  14 2.57  15 2.57   4 3.63   6 3.63
                             7 3.63   2 3.63   3 3.63   4 3.63   2 3.63   5 3.63   6 3.63   3 3.63
   9  0.250  0.250  0.250-   2 2.57   3 2.57   4 2.57   5 2.57   6 2.57   7 2.57
  10  0.750  0.250  0.250-   3 2.57   4 2.57   5 2.57   6 2.57   8 2.57   1 2.57
  11  0.250  0.750  0.250-   1 2.56   2 2.57   4 2.57   5 2.57   7 2.57   8 2.57
  12  0.750  0.750  0.250-   2 2.57   3 2.57   6 2.57   7 2.57   8 2.57   1 2.57
  13  0.250  0.250  0.750-   1 2.56   2 2.57   3 2.57   6 2.57   7 2.57   8 2.57
  14  0.750  0.250  0.750-   2 2.57   4 2.57   5 2.57   7 2.57   8 2.57   1 2.57
  15  0.250  0.750  0.750-   3 2.57   4 2.57   5 2.57   6 2.57   8 2.57   1 2.57
  16  0.750  0.750  0.750-   2 2.57   3 2.57   4 2.57   5 2.57   6 2.57   7 2.57
 
  LATTYP: Found a face centered cubic cell.
 ALAT       =    10.2684199605
  
  Lattice vectors:
  
 A1 = (   0.0000000000,   5.1342099802,   5.1342099802)
 A2 = (   5.1342099802,   0.0000000000,   5.1342099802)
 A3 = (   5.1342099802,   5.1342099802,   0.0000000000)


Analysis of symmetry for initial positions (statically):
=====================================================================
 Subroutine PRICEL returns:
 Original cell was already a primitive cell.
 

 Routine SETGRP: Setting up the symmetry group for a 
 face centered cubic supercell.


 Subroutine GETGRP returns: Found  4 space group operations
 (whereof  4 operations were pure point group operations)
 out of a pool of 48 trial point group operations.


The static configuration has the point symmetry C_2v.


Analysis of symmetry for dynamics (positions and initial velocities):
=====================================================================
 Subroutine PRICEL returns:
 Original cell was already a primitive cell.
 

 Routine SETGRP: Setting up the symmetry group for a 
 face centered cubic supercell.


 Subroutine GETGRP returns: Found  4 space group operations
 (whereof  4 operations were pure point group operations)
 out of a pool of 48 trial point group operations.


The dynamic configuration has the point symmetry C_2v.


 Subroutine INISYM returns: Found  4 space group operations
 (whereof  4 operations are pure point group operations),
 and found     1 'primitive' translations

 
 
 KPOINTS: Automatic 4x4x4                         

Automatic generation of k-mesh.
Space group operators:
 irot       det(A)        alpha          n_x          n_y          n_z        tau_x        tau_y        tau_z
    1     1.000000     0.000001     1.000000     0.000000     0.000000     0.000000     0.000000     0.000000
    2     1.000000   180.000000     0.000000     0.707107     0.707107     0.000000     0.000000     0.000000
    3    -1.000000   180.000000     1.000000     0.000000     0.000000     0.000000     0.000000     0.000000
    4    -1.000000   180.000000     0.000000    -0.707107     0.707107     0.000000     0.000000     0.000000
 
 Subroutine IBZKPT returns following result:
 ===========================================
 
 Found     18 irreducible k-points:
 
 Following reciprocal coordinates:
            Coordinates               Weight
  0.000000  0.000000  0.000000      1.000000
  0.250000  0.000000  0.000000      4.000000
  0.500000  0.000000  0.000000      2.000000
  0.000000  0.250000  0.000000      4.000000
  0.250000  0.250000  0.000000      4.000000
  0.500000  0.250000  0.000000      8.000000
 -0.250000  0.250000  0.000000      8.000000
  0.000000  0.500000  0.000000      2.000000
  0.250000  0.500000  0.000000      8.000000
  0.500000  0.500000  0.000000      2.000000
  0.000000  0.250000  0.250000      2.000000
  0.500000  0.250000  0.250000      2.000000
 -0.250000  0.250000  0.250000      4.000000
  0.000000  0.500000  0.250000      4.000000
 -0.250000  0.500000  0.250000      4.000000
  0.000000 -0.250000  0.250000      2.000000
  0.500000 -0.250000  0.250000      2.000000
  0.000000  0.500000  0.500000      1.000000
 
 Following cartesian coordinates:
            Coordinates               Weight
  0.000000  0.000000  0.000000      1.000000
 -0.024346  0.024346  0.024346      4.000000
 -0.048693  0.048693  0.048693      2.000000
  0.024346 -0.024346  0.024346      4.000000
  0.000000  0.000000  0.048693      4.000000
 -0.024346  0.024346  0.073039      8.000000
  0.048693 -0.048693  0.000000      8.000000
  0.048693 -0.048693  0.048693      2.000000
  0.024346 -0.024346  0.073039      8.000000
  0.000000  0.000000  0.097386      2.000000
  0.048693  0.000000  0.000000      2.000000
  0.000000  0.048693  0.048693      2.000000
  0.073039 -0.024346 -0.024346      4.000000
  0.073039 -0.024346  0.024346      4.000000
  0.097386 -0.048693 -0.000000      4.000000
  0.000000  0.048693 -0.048693      2.000000
 -0.048693  0.097386 -0.000000      2.000000
  0.097386  0.000000  0.000000      1.000000
 


--------------------------------------------------------------------------------------------------------




 Dimension of arrays:
   k-points           NKPTS =     18   k-points in BZ     NKDIM =     18   number of bands    NBANDS=     76
   number of dos      NEDOS =    301   number of ions     NIONS =     16
   non local maximal  LDIM  =      6   non local SUM 2l+1 LMDIM =     18
   total plane-waves  NPLWV = 343000
   max r-space proj   IRMAX =      1   max aug-charges    IRDMAX= 594561
   dimension x,y,z NGX =    70 NGY =   70 NGZ =   70
   dimension x,y,z NGXF=   140 NGYF=  140 NGZF=  140
   support grid    NGXF=   280 NGYF=  280 NGZF=  280
   ions per type =               8   8
 NGX,Y,Z   is equivalent  to a cutoff of  16.03, 16.03, 16.03 a.u.
 NGXF,Y,Z  is equivalent  to a cutoff of  32.05, 32.05, 32.05 a.u.


 I would recommend the setting:
   dimension x,y,z NGX =    67 NGY =   67 NGZ =   67
 SYSTEM =  SrO                                     
 POSCAR =  Sr O                                    

 Startparameter for this run:
   NWRITE =      2    write-flag & timer
   PREC   = accura    normal or accurate (medium, high low for compatibility)
   ISTART =      0    job   : 0-new  1-cont  2-samecut
   ICHARG =      2    charge: 1-file 2-atom 10-const
   ISPIN  =      1    spin polarized calculation?
   LNONCOLLINEAR =      F non collinear calculations
   LSORBIT =      F    spin-orbit coupling
   INIWAV =      1    electr: 0-lowe 1-rand  2-diag
   LASPH  =      T    aspherical Exc in radial PAW
   METAGGA=      F    non-selfconsistent MetaGGA calc.

 Electronic Relaxation 1
   ENCUT  =  800.0 eV  58.80 Ry    7.67 a.u.  16.75 16.75 16.75*2*pi/ulx,y,z
   ENINI  =  800.0     initial cutoff
   ENAUG  =  605.4 eV  augmentation charge cutoff
   NELM   =     60;   NELMIN=  2; NELMDL= -5     # of ELM steps 
   EDIFF  = 0.1E-07   stopping-criterion for ELM
   LREAL  =      F    real-space projection
   NLSPLINE    = F    spline interpolate recip. space projectors
   LCOMPAT=      F    compatible to vasp.4.4
   GGA_COMPAT  = T    GGA compatible to vasp.4.4-vasp.4.6
   LMAXPAW     = -100 max onsite density
   LMAXMIX     =    2 max onsite mixed and CHGCAR
   VOSKOWN=      0    Vosko Wilk Nusair interpolation
   ROPT   =    0.00000   0.00000
 Ionic relaxation
   EDIFFG = 0.1E-06   stopping-criterion for IOM
   NSW    =      0    number of steps for IOM
   NBLOCK =      1;   KBLOCK =      1    inner block; outer block 
   IBRION =     -1    ionic relax: 0-MD 1-quasi-New 2-CG
   NFREE  =      0    steps in history (QN), initial steepest desc. (CG)
   ISIF   =      2    stress and relaxation
   IWAVPR =     10    prediction:  0-non 1-charg 2-wave 3-comb
   ISYM   =      2    0-nonsym 1-usesym 2-fastsym
   LCORR  =      T    Harris-Foulkes like correction to forces

   POTIM  = 0.5000    time-step for ionic-motion
   TEIN   =    0.0    initial temperature
   TEBEG  =    0.0;   TEEND  =   0.0 temperature during run
   SMASS  =  -3.00    Nose mass-parameter (am)
   estimated Nose-frequenzy (Omega)   =  0.10E-29 period in steps =****** mass=  -0.120E-26a.u.
   SCALEE = 1.0000    scale energy and forces
   NPACO  =    256;   APACO  = 16.0  distance and # of slots for P.C.
   PSTRESS=    0.0 pullay stress

  Mass of Ions in am
   POMASS =  87.62 16.00
  Ionic Valenz
   ZVAL   =  10.00  6.00
  Atomic Wigner-Seitz radii
   RWIGS  =  -1.00 -1.00
  virtual crystal weights 
   VCA    =   1.00  1.00
   NELECT =     128.0000    total number of electrons
   NUPDOWN=      -1.0000    fix difference up-down

 DOS related values:
   EMIN   =  10.00;   EMAX   =-10.00  energy-range for DOS
   EFERMI =   0.00
   ISMEAR =     0;   SIGMA  =   0.01  broadening in eV -4-tet -1-fermi 0-gaus

 Electronic relaxation 2 (details)
   IALGO  =     38    algorithm
   LDIAG  =      T    sub-space diagonalisation (order eigenvalues)
   LSUBROT=      F    optimize rotation matrix (better conditioning)
   TURBO    =      0    0=normal 1=particle mesh
   IRESTART =      0    0=no restart 2=restart with 2 vectors
   NREBOOT  =      0    no. of reboots
   NMIN     =      0    reboot dimension
   EREF     =   0.00    reference energy to select bands
   IMIX   =      4    mixing-type and parameters
     AMIX     =   0.40;   BMIX     =  1.00
     AMIX_MAG =   1.60;   BMIX_MAG =  1.00
     AMIN     =   0.10
     WC   =   100.;   INIMIX=   1;  MIXPRE=   1;  MAXMIX= -45

 Intra band minimization:
   WEIMIN = 0.0000     energy-eigenvalue tresh-hold
   EBREAK =  0.33E-10  absolut break condition
   DEPER  =   0.30     relativ break condition  

   TIME   =   0.40     timestep for ELM

  volume/ion in A,a.u.               =      16.92       114.16
  Fermi-wavevector in a.u.,A,eV,Ry     =   1.275443  2.410239 22.133358  1.626756
  Thomas-Fermi vector in A             =   2.408155
 
 Write flags
   LWAVE  =      F    write WAVECAR
   LCHARG =      F    write CHGCAR
   LVTOT  =      F    write LOCPOT, total local potential
   LVHAR  =      F    write LOCPOT, Hartree potential only
   LELF   =      F    write electronic localiz. function (ELF)
   LORBIT =      0    0 simple, 1 ext, 2 COOP (PROOUT)


 Dipole corrections
   LMONO  =      F    monopole corrections only (constant potential shift)
   LDIPOL =      F    correct potential (dipole corrections)
   IDIPOL =      0    1-x, 2-y, 3-z, 4-all directions 
   EPSILON=  1.0000000 bulk dielectric constant

 Exchange correlation treatment:
   GGA     =    PS    GGA type
   LEXCH   =    14    internal setting for exchange type
   VOSKOWN=      0    Vosko Wilk Nusair interpolation
   LHFCALC =     F    Hartree Fock is set to
   LHFONE  =     F    Hartree Fock one center treatment
   AEXX    =    0.0000 exact exchange contribution

 Linear response parameters
   LEPSILON=     F    determine dielectric tensor
   LRPA    =     F    only Hartree local field effects (RPA)
   LNABLA  =     F    use nabla operator in PAW spheres
   LVEL    =     F    velocity operator in full k-point grid
   LINTERFAST=   F  fast interpolation
   KINTER  =     0    interpolate to denser k-point grid
   CSHIFT  =0.1000    complex shift for real part using Kramers Kronig
   OMEGAMAX=  -1.0    maximum frequency
   DEG_THRESHOLD= 0.2000000E-02 threshold for treating states as degnerate
   RTIME   =    0.100 relaxation time in fs

 Orbital magnetization related:
   ORBITALMAG=     F  switch on orbital magnetization
   LCHIMAG   =     F  perturbation theory with respect to B field
   DQ        =  0.001000  dq finite difference perturbation B field



--------------------------------------------------------------------------------------------------------


 Static calculation
 charge density and potential will be updated during run
 non-spin polarized calculation
 Variant of blocked Davidson
 Davidson routine will perform the subspace rotation
 perform sub-space diagonalisation
    after iterative eigenvector-optimisation
 modified Broyden-mixing scheme, WC =      100.0
 initial mixing is a Kerker type mixing with AMIX =  0.4000 and BMIX =      1.0000
 Hartree-type preconditioning will be used
 using additional bands           12
 reciprocal scheme for non local part
 use partial core corrections
 calculate Harris-corrections to forces 
   (improved forces if not selfconsistent)
 use gradient corrections 
 use of overlap-Matrix (Vanderbilt PP)
 Gauss-broadening in eV      SIGMA  =   0.01


--------------------------------------------------------------------------------------------------------


  energy-cutoff  :      800.00
  volume of cell :      270.68
      direct lattice vectors                 reciprocal lattice vectors
     0.000000000  5.134209980  5.134209980    -0.097385966  0.097385966  0.097385966
     5.134209980  0.000000000  5.134209980     0.097385966 -0.097385966  0.097385966
     5.134209980  5.134209980  0.000000000     0.097385966  0.097385966 -0.097385966

  length of vectors
     7.260869386  7.260869386  7.260869386     0.168677442  0.168677442  0.168677442


 
 k-points in units of 2pi/SCALE and weight: Automatic 4x4x4                         
   0.00000000  0.00000000  0.00000000       0.016
  -0.02434649  0.02434649  0.02434649       0.062
  -0.04869298  0.04869298  0.04869298       0.031
   0.02434649 -0.02434649  0.02434649       0.062
   0.00000000  0.00000000  0.04869298       0.062
  -0.02434649  0.02434649  0.07303947       0.125
   0.04869298 -0.04869298  0.00000000       0.125
   0.04869298 -0.04869298  0.04869298       0.031
   0.02434649 -0.02434649  0.07303947       0.125
   0.00000000  0.00000000  0.09738597       0.031
   0.04869298  0.00000000  0.00000000       0.031
   0.00000000  0.04869298  0.04869298       0.031
   0.07303947 -0.02434649 -0.02434649       0.062
   0.07303947 -0.02434649  0.02434649       0.062
   0.09738597 -0.04869298 -0.00000000       0.062
   0.00000000  0.04869298 -0.04869298       0.031
  -0.04869298  0.09738597 -0.00000000       0.031
   0.09738597  0.00000000  0.00000000       0.016
 
 k-points in reciprocal lattice and weights: Automatic 4x4x4                         
   0.00000000  0.00000000  0.00000000       0.016
   0.25000000  0.00000000  0.00000000       0.062
   0.50000000  0.00000000  0.00000000       0.031
   0.00000000  0.25000000  0.00000000       0.062
   0.25000000  0.25000000  0.00000000       0.062
   0.50000000  0.25000000  0.00000000       0.125
  -0.25000000  0.25000000  0.00000000       0.125
   0.00000000  0.50000000  0.00000000       0.031
   0.25000000  0.50000000  0.00000000       0.125
   0.50000000  0.50000000  0.00000000       0.031
   0.00000000  0.25000000  0.25000000       0.031
   0.50000000  0.25000000  0.25000000       0.031
  -0.25000000  0.25000000  0.25000000       0.062
   0.00000000  0.50000000  0.25000000       0.062
  -0.25000000  0.50000000  0.25000000       0.062
   0.00000000 -0.25000000  0.25000000       0.031
   0.50000000 -0.25000000  0.25000000       0.031
   0.00000000  0.50000000  0.50000000       0.016
 
 position of ions in fractional coordinates (direct lattice) 
   0.00137725  0.00000000  0.00000000
   0.50000000  0.00000000  0.00000000
   0.00000000  0.50000000  0.00000000
   0.50000000  0.50000000  0.00000000
   0.00000000  0.00000000  0.50000000
   0.50000000  0.00000000  0.50000000
   0.00000000  0.50000000  0.50000000
   0.50000000  0.50000000  0.50000000
   0.25000000  0.25000000  0.25000000
   0.75000000  0.25000000  0.25000000
   0.25000000  0.75000000  0.25000000
   0.75000000  0.75000000  0.25000000
   0.25000000  0.25000000  0.75000000
   0.75000000  0.25000000  0.75000000
   0.25000000  0.75000000  0.75000000
   0.75000000  0.75000000  0.75000000
 
 position of ions in cartesian coordinates  (Angst):
   0.00000000  0.00707107  0.00707107
   0.00000000  2.56710499  2.56710499
   2.56710499  0.00000000  2.56710499
   2.56710499  2.56710499  5.13420998
   2.56710499  2.56710499  0.00000000
   2.56710499  5.13420998  2.56710499
   5.13420998  2.56710499  2.56710499
   5.13420998  5.13420998  5.13420998
   2.56710499  2.56710499  2.56710499
   2.56710499  5.13420998  5.13420998
   5.13420998  2.56710499  5.13420998
   5.13420998  5.13420998  7.70131497
   5.13420998  5.13420998  2.56710499
   5.13420998  7.70131497  5.13420998
   7.70131497  5.13420998  5.13420998
   7.70131497  7.70131497  7.70131497
 


--------------------------------------------------------------------------------------------------------


 k-point  1 :   0.0000 0.0000 0.0000  plane waves:   13851
 k-point  2 :   0.2500 0.0000 0.0000  plane waves:   13905
 k-point  3 :   0.5000 0.0000 0.0000  plane waves:   13960
 k-point  4 :   0.0000 0.2500 0.0000  plane waves:   13905
 k-point  5 :   0.2500 0.2500 0.0000  plane waves:   13944
 k-point  6 :   0.5000 0.2500 0.0000  plane waves:   13909
 k-point  7 :  -0.2500 0.2500 0.0000  plane waves:   13873
 k-point  8 :   0.0000 0.5000 0.0000  plane waves:   13960
 k-point  9 :   0.2500 0.5000 0.0000  plane waves:   13909
 k-point 10 :   0.5000 0.5000 0.0000  plane waves:   13888
 k-point 11 :   0.0000 0.2500 0.2500  plane waves:   13944
 k-point 12 :   0.5000 0.2500 0.2500  plane waves:   13873
 k-point 13 :  -0.2500 0.2500 0.2500  plane waves:   13909
 k-point 14 :   0.0000 0.5000 0.2500  plane waves:   13909
 k-point 15 :  -0.2500 0.5000 0.2500  plane waves:   13868
 k-point 16 :   0.0000-0.2500 0.2500  plane waves:   13873
 k-point 17 :   0.5000-0.2500 0.2500  plane waves:   13868
 k-point 18 :   0.0000 0.5000 0.5000  plane waves:   13888

 maximum and minimum number of plane-waves per node :      1763     1688

 maximum number of plane-waves:     13960
 maximum index in each direction: 
   IXMAX=   16   IYMAX=   16   IZMAX=   16
   IXMIN=  -17   IYMIN=  -17   IZMIN=  -17

 NGX is ok and might be reduce to  68
 NGY is ok and might be reduce to  68
 NGZ is ok and might be reduce to  68

 parallel 3D FFT for wavefunctions:
    minimum data exchange during FFTs selected (reduces bandwidth)
 parallel 3D FFT for charge:
    minimum data exchange during FFTs selected (reduces bandwidth)


 total amount of memory used by VASP on root node    97735. kBytes
========================================================================

   base      :      30000. kBytes
   nonl-proj :       9520. kBytes
   fftplans  :      26995. kBytes
   grid      :      11753. kBytes
   one-center:         31. kBytes
   wavefun   :      19436. kBytes
 
     INWAV:  cpu time    0.0000: real time    0.0000
 Broyden mixing: mesh for mixing (old mesh)
   NGX = 33   NGY = 33   NGZ = 33
  (NGX  =140   NGY  =140   NGZ  =140)
  gives a total of  35937 points

 initial charge density was supplied:
 charge density of overlapping atoms calculated
 number of electron     128.0000000 magnetization 
 keeping initial charge density in first step


--------------------------------------------------------------------------------------------------------


 Maximum index for augmentation-charges        39792 (set IRDMAX)


--------------------------------------------------------------------------------------------------------


 First call to EWALD:  gamma=   0.274
 Maximum number of real-space cells 3x 3x 3
 Maximum number of reciprocal cells 3x 3x 3

 FEWALD executed in parallel
    FEWALD:  cpu time    0.0040: real time    0.0016


----------------------------------------- Iteration    1(   1)  ---------------------------------------


    POTLOK:  cpu time    0.1520: real time    0.1521
    SETDIJ:  cpu time    0.5240: real time    0.5217
     EDDAV:  cpu time    7.0600: real time    7.0657
       DOS:  cpu time    0.0040: real time    0.0014
    --------------------------------------------
      LOOP:  cpu time    7.7400: real time    7.7423

 eigenvalue-minimisations  :  2736
 total energy-change (2. order) : 0.1120493E+04  (-0.8586117E+04)
 number of electron     128.0000000 magnetization 
 augmentation part      128.0000000 magnetization 

 Free energy of the ion-electron system (eV)
  ---------------------------------------------------
  alpha Z        PSCENC =       796.84035699
  Ewald energy   TEWEN  =     -8462.35405623
  -Hartree energ DENC   =     -1828.63877620
  -exchange      EXHF   =         0.00000000
  -V(xc)+E(xc)   XCENC  =       513.00731012
  PAW double counting   =      7817.12183272    -7712.97334390
  entropy T*S    EENTRO =        -0.00035650
  eigenvalues    EBANDS =      -187.03295576
  atomic energy  EATOM  =     10184.52279430
  Solvation  Ediel_sol  =         0.00000000
  ---------------------------------------------------
  free energy    TOTEN  =      1120.49280554 eV

  energy without entropy =     1120.49316204  energy(sigma->0) =     1120.49298379


--------------------------------------------------------------------------------------------------------




----------------------------------------- Iteration    1(   2)  ---------------------------------------


     EDDAV:  cpu time    8.3840: real time    8.3897
       DOS:  cpu time    0.0000: real time    0.0003
    --------------------------------------------
      LOOP:  cpu time    8.3840: real time    8.3905

 eigenvalue-minimisations  :  3480
 total energy-change (2. order) :-0.1143477E+04  (-0.1101444E+04)
 number of electron     128.0000000 magnetization 
 augmentation part      128.0000000 magnetization 

 Free energy of the ion-electron system (eV)
  ---------------------------------------------------
  alpha Z        PSCENC =       796.84035699
  Ewald energy   TEWEN  =     -8462.35405623
  -Hartree energ DENC   =     -1828.63877620
  -exchange      EXHF   =         0.00000000
  -V(xc)+E(xc)   XCENC  =       513.00731012
  PAW double counting   =      7817.12183272    -7712.97334390
  entropy T*S    EENTRO =        -0.00000000
  eigenvalues    EBANDS =     -1330.51061943
  atomic energy  EATOM  =     10184.52279430
  Solvation  Ediel_sol  =         0.00000000
  ---------------------------------------------------
  free energy    TOTEN  =       -22.98450164 eV

  energy without entropy =      -22.98450164  energy(sigma->0) =      -22.98450164


--------------------------------------------------------------------------------------------------------




----------------------------------------- Iteration    1(   3)  ---------------------------------------


     EDDAV:  cpu time    8.3080: real time    8.3093
       DOS:  cpu time    0.0000: real time    0.0003
    --------------------------------------------
      LOOP:  cpu time    8.3080: real time    8.3101

 eigenvalue-minimisations  :  3432
 total energy-change (2. order) :-0.8895720E+02  (-0.8844965E+02)
 number of electron     128.0000000 magnetization 
 augmentation part      128.0000000 magnetization 

 Free energy of the ion-electron system (eV)
  ---------------------------------------------------
  alpha Z        PSCENC =       796.84035699
  Ewald energy   TEWEN  =     -8462.35405623
  -Hartree energ DENC   =     -1828.63877620
  -exchange      EXHF   =         0.00000000
  -V(xc)+E(xc)   XCENC  =       513.00731012
  PAW double counting   =      7817.12183272    -7712.97334390
  entropy T*S    EENTRO =        -0.00000000
  eigenvalues    EBANDS =     -1419.46782153
  atomic energy  EATOM  =     10184.52279430
  Solvation  Ediel_sol  =         0.00000000
  ---------------------------------------------------
  free energy    TOTEN  =      -111.94170374 eV

  energy without entropy =     -111.94170374  energy(sigma->0) =     -111.94170374


--------------------------------------------------------------------------------------------------------




----------------------------------------- Iteration    1(   4)  ---------------------------------------


     EDDAV:  cpu time    9.5840: real time    9.5881
       DOS:  cpu time    0.0000: real time    0.0003
    --------------------------------------------
      LOOP:  cpu time    9.5840: real time    9.5889

 eigenvalue-minimisations  :  4088
 total energy-change (2. order) :-0.4853015E+01  (-0.4844587E+01)
 number of electron     128.0000000 magnetization 
 augmentation part      128.0000000 magnetization 

 Free energy of the ion-electron system (eV)
  ---------------------------------------------------
  alpha Z        PSCENC =       796.84035699
  Ewald energy   TEWEN  =     -8462.35405623
  -Hartree energ DENC   =     -1828.63877620
  -exchange      EXHF   =         0.00000000
  -V(xc)+E(xc)   XCENC  =       513.00731012
  PAW double counting   =      7817.12183272    -7712.97334390
  entropy T*S    EENTRO =        -0.00000000
  eigenvalues    EBANDS =     -1424.32083621
  atomic energy  EATOM  =     10184.52279430
  Solvation  Ediel_sol  =         0.00000000
  ---------------------------------------------------
  free energy    TOTEN  =      -116.79471842 eV

  energy without entropy =     -116.79471842  energy(sigma->0) =     -116.79471842


--------------------------------------------------------------------------------------------------------




----------------------------------------- Iteration    1(   5)  ---------------------------------------


     EDDAV:  cpu time    8.8080: real time    8.8130
       DOS:  cpu time    0.0000: real time    0.0003
    CHARGE:  cpu time    0.8560: real time    0.8542
    MIXING:  cpu time    0.0040: real time    0.0047
    --------------------------------------------
      LOOP:  cpu time    9.6680: real time    9.6727

 eigenvalue-minimisations  :  3716
 total energy-change (2. order) :-0.1655236E+00  (-0.1654928E+00)
 number of electron     128.0000001 magnetization 
 augmentation part       11.4576284 magnetization 

 Broyden mixing:
  rms(total) = 0.48635E+01    rms(broyden)= 0.48635E+01
  rms(prec ) = 0.62061E+01
  weight for this iteration     100.00

 Free energy of the ion-electron system (eV)
  ---------------------------------------------------
  alpha Z        PSCENC =       796.84035699
  Ewald energy   TEWEN  =     -8462.35405623
  -Hartree energ DENC   =     -1828.63877620
  -exchange      EXHF   =         0.00000000
  -V(xc)+E(xc)   XCENC  =       513.00731012
  PAW double counting   =      7817.12183272    -7712.97334390
  entropy T*S    EENTRO =        -0.00000000
  eigenvalues    EBANDS =     -1424.48635978
  atomic energy  EATOM  =     10184.52279430
  Solvation  Ediel_sol  =         0.00000000
  ---------------------------------------------------
  free energy    TOTEN  =      -116.96024199 eV

  energy without entropy =     -116.96024199  energy(sigma->0) =     -116.96024199


--------------------------------------------------------------------------------------------------------




----------------------------------------- Iteration    1(   6)  ---------------------------------------


    POTLOK:  cpu time    0.1480: real time    0.1478
    SETDIJ:  cpu time    0.5200: real time    0.5201
     EDDAV:  cpu time    7.8200: real time    7.8229
       DOS:  cpu time    0.0000: real time    0.0005
    CHARGE:  cpu time    0.8520: real time    0.8524
    MIXING:  cpu time    0.0040: real time    0.0048
    --------------------------------------------
      LOOP:  cpu time    9.3440: real time    9.3490

 eigenvalue-minimisations  :  3152
 total energy-change (2. order) : 0.1522018E+02  (-0.1059863E+02)
 number of electron     128.0000001 magnetization 
 augmentation part        9.5945725 magnetization 

 Broyden mixing:
  rms(total) = 0.64737E+01    rms(broyden)= 0.64737E+01
  rms(prec ) = 0.65707E+01
  weight for this iteration     100.00

 eigenvalues of (default mixing * dielectric matrix)
  average eigenvalue GAMMA=   0.1792
  0.1792

 Free energy of the ion-electron system (eV)
  ---------------------------------------------------
  alpha Z        PSCENC =       796.84035699
  Ewald energy   TEWEN  =     -8462.35405623
  -Hartree energ DENC   =     -1955.28403696
  -exchange      EXHF   =         0.00000000
  -V(xc)+E(xc)   XCENC  =       521.97707324
  PAW double counting   =     10887.30278722   -10806.90344311
  entropy T*S    EENTRO =        -0.00000000
  eigenvalues    EBANDS =     -1267.84153291
  atomic energy  EATOM  =     10184.52279430
  Solvation  Ediel_sol  =         0.00000000
  ---------------------------------------------------
  free energy    TOTEN  =      -101.74005745 eV

  energy without entropy =     -101.74005745  energy(sigma->0) =     -101.74005745


--------------------------------------------------------------------------------------------------------




----------------------------------------- Iteration    1(   7)  ---------------------------------------


    POTLOK:  cpu time    0.1480: real time    0.1473
    SETDIJ:  cpu time    0.5240: real time    0.5248
     EDDAV:  cpu time    8.3760: real time    8.3764
       DOS:  cpu time    0.0000: real time    0.0005
    CHARGE:  cpu time    0.8480: real time    0.8515
    MIXING:  cpu time    0.0080: real time    0.0049
    --------------------------------------------
      LOOP:  cpu time    9.9040: real time    9.9059

 eigenvalue-minimisations  :  3464
 total energy-change (2. order) : 0.4927782E-01  (-0.8476717E+00)
 number of electron     128.0000001 magnetization 
 augmentation part        9.1998866 magnetization 

 Broyden mixing:
  rms(total) = 0.43534E+01    rms(broyden)= 0.43534E+01
  rms(prec ) = 0.44255E+01
  weight for this iteration     100.00

 eigenvalues of (default mixing * dielectric matrix)
  average eigenvalue GAMMA=   1.1511
  1.0167  1.2856

 Free energy of the ion-electron system (eV)
  ---------------------------------------------------
  alpha Z        PSCENC =       796.84035699
  Ewald energy   TEWEN  =     -8462.35405623
  -Hartree energ DENC   =     -1936.93504814
  -exchange      EXHF   =         0.00000000
  -V(xc)+E(xc)   XCENC  =       520.68290495
  PAW double counting   =     12385.31135517   -12308.84191018
  entropy T*S    EENTRO =        -0.00000000
  eigenvalues    EBANDS =     -1280.91717649
  atomic energy  EATOM  =     10184.52279430
  Solvation  Ediel_sol  =         0.00000000
  ---------------------------------------------------
  free energy    TOTEN  =      -101.69077963 eV

  energy without entropy =     -101.69077963  energy(sigma->0) =     -101.69077963


--------------------------------------------------------------------------------------------------------




----------------------------------------- Iteration    1(   8)  ---------------------------------------


    POTLOK:  cpu time    0.1480: real time    0.1476
    SETDIJ:  cpu time    0.5200: real time    0.5227
     EDDAV:  cpu time    7.6600: real time    7.6617
       DOS:  cpu time    0.0000: real time    0.0005
    CHARGE:  cpu time    0.8480: real time    0.8488
    MIXING:  cpu time    0.0080: real time    0.0085
    --------------------------------------------
      LOOP:  cpu time    9.1840: real time    9.1903

 eigenvalue-minimisations  :  3068
 total energy-change (2. order) : 0.3846872E+00  (-0.4740350E+00)
 number of electron     128.0000001 magnetization 
 augmentation part        9.4753274 magnetization 

 Broyden mixing:
  rms(total) = 0.12253E+01    rms(broyden)= 0.12253E+01
  rms(prec ) = 0.13125E+01
  weight for this iteration     100.00

 eigenvalues of (default mixing * dielectric matrix)
  average eigenvalue GAMMA=   1.3658
  2.5182  0.7896  0.7896

 Free energy of the ion-electron system (eV)
  ---------------------------------------------------
  alpha Z        PSCENC =       796.84035699
  Ewald energy   TEWEN  =     -8462.35405623
  -Hartree energ DENC   =     -1913.11188537
  -exchange      EXHF   =         0.00000000
  -V(xc)+E(xc)   XCENC  =       518.90700228
  PAW double counting   =     17039.25972355   -16968.41789399
  entropy T*S    EENTRO =        -0.00000000
  eigenvalues    EBANDS =     -1296.95213393
  atomic energy  EATOM  =     10184.52279430
  Solvation  Ediel_sol  =         0.00000000
  ---------------------------------------------------
  free energy    TOTEN  =      -101.30609239 eV

  energy without entropy =     -101.30609239  energy(sigma->0) =     -101.30609239


--------------------------------------------------------------------------------------------------------




----------------------------------------- Iteration    1(   9)  ---------------------------------------


    POTLOK:  cpu time    0.1480: real time    0.1485
    SETDIJ:  cpu time    0.5240: real time    0.5240
     EDDAV:  cpu time    8.1680: real time    8.1704
       DOS:  cpu time    0.0000: real time    0.0005
    CHARGE:  cpu time    0.8520: real time    0.8494
    MIXING:  cpu time    0.0040: real time    0.0051
    --------------------------------------------
      LOOP:  cpu time    9.6960: real time    9.6984

 eigenvalue-minimisations  :  3352
 total energy-change (2. order) : 0.1600560E+00  (-0.7660646E-01)
 number of electron     128.0000001 magnetization 
 augmentation part        9.3056662 magnetization 

 Broyden mixing:
  rms(total) = 0.34011E+00    rms(broyden)= 0.34011E+00
  rms(prec ) = 0.34954E+00
  weight for this iteration     100.00

 eigenvalues of (default mixing * dielectric matrix)
  average eigenvalue GAMMA=   1.4086
  2.3708  0.8438  0.8438  1.5761

 Free energy of the ion-electron system (eV)
  ---------------------------------------------------
  alpha Z        PSCENC =       796.84035699
  Ewald energy   TEWEN  =     -8462.35405623
  -Hartree energ DENC   =     -1922.34811023
  -exchange      EXHF   =         0.00000000
  -V(xc)+E(xc)   XCENC  =       519.56756475
  PAW double counting   =     19939.02021277   -19874.33366568
  entropy T*S    EENTRO =        -0.00000000
  eigenvalues    EBANDS =     -1282.06113309
  atomic energy  EATOM  =     10184.52279430
  Solvation  Ediel_sol  =         0.00000000
  ---------------------------------------------------
  free energy    TOTEN  =      -101.14603641 eV

  energy without entropy =     -101.14603641  energy(sigma->0) =     -101.14603641


--------------------------------------------------------------------------------------------------------




----------------------------------------- Iteration    1(  10)  ---------------------------------------


    POTLOK:  cpu time    0.1480: real time    0.1477
    SETDIJ:  cpu time    0.5240: real time    0.5243
     EDDAV:  cpu time    8.4920: real time    8.4953
       DOS:  cpu time    0.0000: real time    0.0004
    CHARGE:  cpu time    0.8480: real time    0.8504
    MIXING:  cpu time    0.0080: real time    0.0052
    --------------------------------------------
      LOOP:  cpu time   10.0200: real time   10.0240

 eigenvalue-minimisations  :  3536
 total energy-change (2. order) :-0.8784563E-02  (-0.6381766E-02)
 number of electron     128.0000001 magnetization 
 augmentation part        9.2859457 magnetization 

 Broyden mixing:
  rms(total) = 0.14777E+00    rms(broyden)= 0.14777E+00
  rms(prec ) = 0.15918E+00
  weight for this iteration     100.00

 eigenvalues of (default mixing * dielectric matrix)
  average eigenvalue GAMMA=   1.4943
  2.4214  2.4214  0.8259  0.8259  0.9768

 Free energy of the ion-electron system (eV)
  ---------------------------------------------------
  alpha Z        PSCENC =       796.84035699
  Ewald energy   TEWEN  =     -8462.35405623
  -Hartree energ DENC   =     -1920.16085822
  -exchange      EXHF   =         0.00000000
  -V(xc)+E(xc)   XCENC  =       519.42990042
  PAW double counting   =     19999.94048235   -19935.76954666
  entropy T*S    EENTRO =        -0.00000000
  eigenvalues    EBANDS =     -1283.60389392
  atomic energy  EATOM  =     10184.52279430
  Solvation  Ediel_sol  =         0.00000000
  ---------------------------------------------------
  free energy    TOTEN  =      -101.15482098 eV

  energy without entropy =     -101.15482098  energy(sigma->0) =     -101.15482098


--------------------------------------------------------------------------------------------------------




----------------------------------------- Iteration    1(  11)  ---------------------------------------


    POTLOK:  cpu time    0.1480: real time    0.1488
    SETDIJ:  cpu time    0.5200: real time    0.5211
     EDDAV:  cpu time    9.3800: real time    9.3829
       DOS:  cpu time    0.0000: real time    0.0003
    CHARGE:  cpu time    0.8520: real time    0.8508
    MIXING:  cpu time    0.0040: real time    0.0056
    --------------------------------------------
      LOOP:  cpu time   10.9040: real time   10.9100

 eigenvalue-minimisations  :  4032
 total energy-change (2. order) : 0.1371166E-02  (-0.1273744E-02)
 number of electron     128.0000001 magnetization 
 augmentation part        9.2502662 magnetization 

 Broyden mixing:
  rms(total) = 0.12640E-01    rms(broyden)= 0.12640E-01
  rms(prec ) = 0.17069E-01
  weight for this iteration     100.00

 eigenvalues of (default mixing * dielectric matrix)
  average eigenvalue GAMMA=   1.5991
  3.0641  2.5322  1.3950  0.8253  0.8253  0.9524

 Free energy of the ion-electron system (eV)
  ---------------------------------------------------
  alpha Z        PSCENC =       796.84035699
  Ewald energy   TEWEN  =     -8462.35405623
  -Hartree energ DENC   =     -1920.32976278
  -exchange      EXHF   =         0.00000000
  -V(xc)+E(xc)   XCENC  =       519.45481402
  PAW double counting   =     20186.37364553   -20123.04197548
  entropy T*S    EENTRO =        -0.00000000
  eigenvalues    EBANDS =     -1282.61926616
  atomic energy  EATOM  =     10184.52279430
  Solvation  Ediel_sol  =         0.00000000
  ---------------------------------------------------
  free energy    TOTEN  =      -101.15344981 eV

  energy without entropy =     -101.15344981  energy(sigma->0) =     -101.15344981


--------------------------------------------------------------------------------------------------------




----------------------------------------- Iteration    1(  12)  ---------------------------------------


    POTLOK:  cpu time    0.1480: real time    0.1468
    SETDIJ:  cpu time    0.5240: real time    0.5243
     EDDAV:  cpu time    8.8120: real time    8.8168
       DOS:  cpu time    0.0000: real time    0.0003
    CHARGE:  cpu time    0.8520: real time    0.8506
    MIXING:  cpu time    0.0040: real time    0.0059
    --------------------------------------------
      LOOP:  cpu time   10.3400: real time   10.3453

 eigenvalue-minimisations  :  3720
 total energy-change (2. order) :-0.1543569E-03  (-0.3654274E-03)
 number of electron     128.0000001 magnetization 
 augmentation part        9.2347093 magnetization 

 Broyden mixing:
  rms(total) = 0.13695E-01    rms(broyden)= 0.13695E-01
  rms(prec ) = 0.17505E-01
  weight for this iteration     100.00

 eigenvalues of (default mixing * dielectric matrix)
  average eigenvalue GAMMA=   1.5999
  2.9566  2.6015  2.0076  0.8194  0.8194  1.0781  0.9164

 Free energy of the ion-electron system (eV)
  ---------------------------------------------------
  alpha Z        PSCENC =       796.84035699
  Ewald energy   TEWEN  =     -8462.35405623
  -Hartree energ DENC   =     -1920.80328180
  -exchange      EXHF   =         0.00000000
  -V(xc)+E(xc)   XCENC  =       519.48959379
  PAW double counting   =     20196.16763264   -20132.95717277
  entropy T*S    EENTRO =        -0.00000000
  eigenvalues    EBANDS =     -1282.05947108
  atomic energy  EATOM  =     10184.52279430
  Solvation  Ediel_sol  =         0.00000000
  ---------------------------------------------------
  free energy    TOTEN  =      -101.15360417 eV

  energy without entropy =     -101.15360417  energy(sigma->0) =     -101.15360417


--------------------------------------------------------------------------------------------------------




----------------------------------------- Iteration    1(  13)  ---------------------------------------


    POTLOK:  cpu time    0.1480: real time    0.1486
    SETDIJ:  cpu time    0.5240: real time    0.5233
     EDDAV:  cpu time    7.9480: real time    7.9496
       DOS:  cpu time    0.0000: real time    0.0003
    CHARGE:  cpu time    0.8440: real time    0.8439
    MIXING:  cpu time    0.0120: real time    0.0127
    --------------------------------------------
      LOOP:  cpu time    9.4760: real time    9.4790

 eigenvalue-minimisations  :  3228
 total energy-change (2. order) : 0.7701909E-04  (-0.6164563E-04)
 number of electron     128.0000001 magnetization 
 augmentation part        9.2380514 magnetization 

 Broyden mixing:
  rms(total) = 0.82266E-02    rms(broyden)= 0.82266E-02
  rms(prec ) = 0.84383E-02
  weight for this iteration     100.00

 eigenvalues of (default mixing * dielectric matrix)
  average eigenvalue GAMMA=   1.4795
  2.8771  2.2040  2.2040  0.8185  0.8185  1.1608  0.9220  0.8314

 Free energy of the ion-electron system (eV)
  ---------------------------------------------------
  alpha Z        PSCENC =       796.84035699
  Ewald energy   TEWEN  =     -8462.35405623
  -Hartree energ DENC   =     -1920.78386459
  -exchange      EXHF   =         0.00000000
  -V(xc)+E(xc)   XCENC  =       519.48594346
  PAW double counting   =     20173.58857849   -20110.24281940
  entropy T*S    EENTRO =        -0.00000000
  eigenvalues    EBANDS =     -1282.21046016
  atomic energy  EATOM  =     10184.52279430
  Solvation  Ediel_sol  =         0.00000000
  ---------------------------------------------------
  free energy    TOTEN  =      -101.15352715 eV

  energy without entropy =     -101.15352715  energy(sigma->0) =     -101.15352715


--------------------------------------------------------------------------------------------------------




----------------------------------------- Iteration    1(  14)  ---------------------------------------


    POTLOK:  cpu time    0.1480: real time    0.1472
    SETDIJ:  cpu time    0.5240: real time    0.5267
     EDDAV:  cpu time    8.7520: real time    8.7534
       DOS:  cpu time    0.0000: real time    0.0005
    CHARGE:  cpu time    0.8480: real time    0.8492
    MIXING:  cpu time    0.0040: real time    0.0057
    --------------------------------------------
      LOOP:  cpu time   10.2760: real time   10.2832

 eigenvalue-minimisations  :  3680
 total energy-change (2. order) :-0.1643750E-05  (-0.3608880E-05)
 number of electron     128.0000001 magnetization 
 augmentation part        9.2385757 magnetization 

 Broyden mixing:
  rms(total) = 0.40821E-02    rms(broyden)= 0.40821E-02
  rms(prec ) = 0.42842E-02
  weight for this iteration     100.00

 eigenvalues of (default mixing * dielectric matrix)
  average eigenvalue GAMMA=   1.5016
  2.9004  2.2093  2.2093  1.6363  0.8201  0.8201  1.0029  0.9577  0.9577

 Free energy of the ion-electron system (eV)
  ---------------------------------------------------
  alpha Z        PSCENC =       796.84035699
  Ewald energy   TEWEN  =     -8462.35405623
  -Hartree energ DENC   =     -1920.82535360
  -exchange      EXHF   =         0.00000000
  -V(xc)+E(xc)   XCENC  =       519.48838037
  PAW double counting   =     20176.42457220   -20113.06749510
  entropy T*S    EENTRO =        -0.00000000
  eigenvalues    EBANDS =     -1282.18272773
  atomic energy  EATOM  =     10184.52279430
  Solvation  Ediel_sol  =         0.00000000
  ---------------------------------------------------
  free energy    TOTEN  =      -101.15352879 eV

  energy without entropy =     -101.15352879  energy(sigma->0) =     -101.15352879


--------------------------------------------------------------------------------------------------------




----------------------------------------- Iteration    1(  15)  ---------------------------------------


    POTLOK:  cpu time    0.1480: real time    0.1478
    SETDIJ:  cpu time    0.5280: real time    0.5247
     EDDAV:  cpu time    8.9400: real time    8.9458
       DOS:  cpu time    0.0000: real time    0.0003
    CHARGE:  cpu time    0.8440: real time    0.8443
    MIXING:  cpu time    0.0120: real time    0.0133
    --------------------------------------------
      LOOP:  cpu time   10.4720: real time   10.4769

 eigenvalue-minimisations  :  3784
 total energy-change (2. order) : 0.5233887E-06  (-0.3189856E-06)
 number of electron     128.0000001 magnetization 
 augmentation part        9.2391640 magnetization 

 Broyden mixing:
  rms(total) = 0.17274E-02    rms(broyden)= 0.17274E-02
  rms(prec ) = 0.17996E-02
  weight for this iteration     100.00

 eigenvalues of (default mixing * dielectric matrix)
  average eigenvalue GAMMA=   1.4423
  2.8776  2.1314  2.1314  2.0330  1.0759  0.8186  0.8186  0.8925  0.8223  0.8223

 Free energy of the ion-electron system (eV)
  ---------------------------------------------------
  alpha Z        PSCENC =       796.84035699
  Ewald energy   TEWEN  =     -8462.35405623
  -Hartree energ DENC   =     -1920.85007584
  -exchange      EXHF   =         0.00000000
  -V(xc)+E(xc)   XCENC  =       519.48958638
  PAW double counting   =     20174.04836587   -20110.66713921
  entropy T*S    EENTRO =        -0.00000000
  eigenvalues    EBANDS =     -1282.18336054
  atomic energy  EATOM  =     10184.52279430
  Solvation  Ediel_sol  =         0.00000000
  ---------------------------------------------------
  free energy    TOTEN  =      -101.15352827 eV

  energy without entropy =     -101.15352827  energy(sigma->0) =     -101.15352827


--------------------------------------------------------------------------------------------------------




----------------------------------------- Iteration    1(  16)  ---------------------------------------


    POTLOK:  cpu time    0.1480: real time    0.1479
    SETDIJ:  cpu time    0.5280: real time    0.5265
     EDDAV:  cpu time    8.8440: real time    8.8492
       DOS:  cpu time    0.0000: real time    0.0003
    CHARGE:  cpu time    0.9040: real time    0.9047
    MIXING:  cpu time    0.0080: real time    0.0060
    --------------------------------------------
      LOOP:  cpu time   10.4320: real time   10.4353

 eigenvalue-minimisations  :  3728
 total energy-change (2. order) : 0.1066182E-06  (-0.3745626E-07)
 number of electron     128.0000001 magnetization 
 augmentation part        9.2392731 magnetization 

 Broyden mixing:
  rms(total) = 0.99327E-03    rms(broyden)= 0.99319E-03
  rms(prec ) = 0.10890E-02
  weight for this iteration     100.00

 eigenvalues of (default mixing * dielectric matrix)
  average eigenvalue GAMMA=   1.5108
  2.9307  2.5605  2.1995  2.1995  1.3577  0.8203  0.8203  0.9639  0.9183  0.9240
  0.9240

 Free energy of the ion-electron system (eV)
  ---------------------------------------------------
  alpha Z        PSCENC =       796.84035699
  Ewald energy   TEWEN  =     -8462.35405623
  -Hartree energ DENC   =     -1920.85515203
  -exchange      EXHF   =         0.00000000
  -V(xc)+E(xc)   XCENC  =       519.48986416
  PAW double counting   =     20173.80901368   -20110.42497137
  entropy T*S    EENTRO =        -0.00000000
  eigenvalues    EBANDS =     -1282.18137766
  atomic energy  EATOM  =     10184.52279430
  Solvation  Ediel_sol  =         0.00000000
  ---------------------------------------------------
  free energy    TOTEN  =      -101.15352816 eV

  energy without entropy =     -101.15352816  energy(sigma->0) =     -101.15352816


--------------------------------------------------------------------------------------------------------




----------------------------------------- Iteration    1(  17)  ---------------------------------------


    POTLOK:  cpu time    0.1480: real time    0.1481
    SETDIJ:  cpu time    0.5240: real time    0.5241
     EDDAV:  cpu time    8.2600: real time    8.2622
       DOS:  cpu time    0.0000: real time    0.0005
    CHARGE:  cpu time    0.8440: real time    0.8466
    MIXING:  cpu time    0.0120: real time    0.0103
    --------------------------------------------
      LOOP:  cpu time    9.7880: real time    9.7924

 eigenvalue-minimisations  :  3400
 total energy-change (2. order) :-0.1437547E-07  (-0.6565360E-07)
 number of electron     128.0000001 magnetization 
 augmentation part        9.2395249 magnetization 

 Broyden mixing:
  rms(total) = 0.21320E-03    rms(broyden)= 0.21283E-03
  rms(prec ) = 0.22682E-03
  weight for this iteration     100.00

 eigenvalues of (default mixing * dielectric matrix)
  average eigenvalue GAMMA=   1.4455
  2.8927  2.5391  2.2443  2.2443  1.4320  0.8200  0.8200  0.8812  0.8812  0.9817
  0.8683  0.7410

 Free energy of the ion-electron system (eV)
  ---------------------------------------------------
  alpha Z        PSCENC =       796.84035699
  Ewald energy   TEWEN  =     -8462.35405623
  -Hartree energ DENC   =     -1920.85902711
  -exchange      EXHF   =         0.00000000
  -V(xc)+E(xc)   XCENC  =       519.48998438
  PAW double counting   =     20172.24158008   -20108.84981434
  entropy T*S    EENTRO =        -0.00000000
  eigenvalues    EBANDS =     -1282.18534623
  atomic energy  EATOM  =     10184.52279430
  Solvation  Ediel_sol  =         0.00000000
  ---------------------------------------------------
  free energy    TOTEN  =      -101.15352818 eV

  energy without entropy =     -101.15352818  energy(sigma->0) =     -101.15352818


--------------------------------------------------------------------------------------------------------




----------------------------------------- Iteration    1(  18)  ---------------------------------------


    POTLOK:  cpu time    0.1480: real time    0.1479
    SETDIJ:  cpu time    0.5240: real time    0.5251
     EDDAV:  cpu time    7.3200: real time    7.3206
       DOS:  cpu time    0.0000: real time    0.0004
    CHARGE:  cpu time    0.8480: real time    0.8480
    MIXING:  cpu time    0.0080: real time    0.0100
    --------------------------------------------
      LOOP:  cpu time    8.8480: real time    8.8526

 eigenvalue-minimisations  :  2864
 total energy-change (2. order) : 0.2561683E-07  (-0.9666239E-08)
 number of electron     128.0000001 magnetization 
 augmentation part        9.2395838 magnetization 

 Broyden mixing:
  rms(total) = 0.88679E-04    rms(broyden)= 0.87776E-04
  rms(prec ) = 0.99870E-04
  weight for this iteration     100.00

 eigenvalues of (default mixing * dielectric matrix)
  average eigenvalue GAMMA=   1.4587
  2.8687  2.6484  2.4116  2.4116  1.5832  0.8195  0.8195  0.9832  0.8466  0.9159
  0.9159  0.8692  0.8692

 Free energy of the ion-electron system (eV)
  ---------------------------------------------------
  alpha Z        PSCENC =       796.84035699
  Ewald energy   TEWEN  =     -8462.35405623
  -Hartree energ DENC   =     -1920.85906506
  -exchange      EXHF   =         0.00000000
  -V(xc)+E(xc)   XCENC  =       519.48998434
  PAW double counting   =     20172.19689473   -20108.80515725
  entropy T*S    EENTRO =        -0.00000000
  eigenvalues    EBANDS =     -1282.18527996
  atomic energy  EATOM  =     10184.52279430
  Solvation  Ediel_sol  =         0.00000000
  ---------------------------------------------------
  free energy    TOTEN  =      -101.15352815 eV

  energy without entropy =     -101.15352815  energy(sigma->0) =     -101.15352815


--------------------------------------------------------------------------------------------------------




----------------------------------------- Iteration    1(  19)  ---------------------------------------


    POTLOK:  cpu time    0.1480: real time    0.1477
    SETDIJ:  cpu time    0.5240: real time    0.5225
     EDDAV:  cpu time    5.5200: real time    5.5251
       DOS:  cpu time    0.0000: real time    0.0006
    CHARGE:  cpu time    0.8480: real time    0.8474
    MIXING:  cpu time    0.0120: real time    0.0101
    --------------------------------------------
      LOOP:  cpu time    7.0520: real time    7.0540

 eigenvalue-minimisations  :  1840
 total energy-change (2. order) : 0.5587390E-07  (-0.4912303E-09)
 number of electron     128.0000001 magnetization 
 augmentation part        9.2395912 magnetization 

 Broyden mixing:
  rms(total) = 0.43808E-04    rms(broyden)= 0.41949E-04
  rms(prec ) = 0.54265E-04
  weight for this iteration     100.00

 eigenvalues of (default mixing * dielectric matrix)
  average eigenvalue GAMMA=   1.4788
  2.9964  2.6906  2.4023  2.4023  1.8380  0.9192  0.9192  0.8196  0.8196  1.1841
  1.0151  1.0151  0.9442  0.7368

 Free energy of the ion-electron system (eV)
  ---------------------------------------------------
  alpha Z        PSCENC =       796.84035699
  Ewald energy   TEWEN  =     -8462.35405623
  -Hartree energ DENC   =     -1920.85863197
  -exchange      EXHF   =         0.00000000
  -V(xc)+E(xc)   XCENC  =       519.48995670
  PAW double counting   =     20172.22979169   -20108.83849768
  entropy T*S    EENTRO =        -0.00000000
  eigenvalues    EBANDS =     -1282.18524189
  atomic energy  EATOM  =     10184.52279430
  Solvation  Ediel_sol  =         0.00000000
  ---------------------------------------------------
  free energy    TOTEN  =      -101.15352809 eV

  energy without entropy =     -101.15352809  energy(sigma->0) =     -101.15352809


--------------------------------------------------------------------------------------------------------




----------------------------------------- Iteration    1(  20)  ---------------------------------------


    POTLOK:  cpu time    0.1480: real time    0.1481
    SETDIJ:  cpu time    0.5240: real time    0.5237
     EDDAV:  cpu time    5.3640: real time    5.3678
       DOS:  cpu time    0.0000: real time    0.0004
    CHARGE:  cpu time    0.8480: real time    0.8459
    MIXING:  cpu time    0.0080: real time    0.0117
    --------------------------------------------
      LOOP:  cpu time    6.8920: real time    6.8982

 eigenvalue-minimisations  :  1752
 total energy-change (2. order) : 0.2525303E-07  (-0.7517751E-09)
 number of electron     128.0000001 magnetization 
 augmentation part        9.2396089 magnetization 

 Broyden mixing:
  rms(total) = 0.16178E-04    rms(broyden)= 0.10118E-04
  rms(prec ) = 0.10877E-04
  weight for this iteration     100.00
  WARNING: grid for Broyden might be to small

 eigenvalues of (default mixing * dielectric matrix)
  average eigenvalue GAMMA=   1.4472
  3.0022  2.7844  2.2339  2.2339  1.7500  1.7500  0.9280  0.9280  0.8197  0.8197
  1.0695  0.9800  0.8644  0.7725  0.7725

 Free energy of the ion-electron system (eV)
  ---------------------------------------------------
  alpha Z        PSCENC =       796.84035699
  Ewald energy   TEWEN  =     -8462.35405623
  -Hartree energ DENC   =     -1920.85873266
  -exchange      EXHF   =         0.00000000
  -V(xc)+E(xc)   XCENC  =       519.48995547
  PAW double counting   =     20172.24734687   -20108.85587900
  entropy T*S    EENTRO =        -0.00000000
  eigenvalues    EBANDS =     -1282.18531382
  atomic energy  EATOM  =     10184.52279430
  Solvation  Ediel_sol  =         0.00000000
  ---------------------------------------------------
  free energy    TOTEN  =      -101.15352807 eV

  energy without entropy =     -101.15352807  energy(sigma->0) =     -101.15352807


--------------------------------------------------------------------------------------------------------




----------------------------------------- Iteration    1(  21)  ---------------------------------------


    POTLOK:  cpu time    0.1480: real time    0.1481
    SETDIJ:  cpu time    0.5240: real time    0.5249
     EDDAV:  cpu time    5.2800: real time    5.2824
       DOS:  cpu time    0.0000: real time    0.0003
    --------------------------------------------
      LOOP:  cpu time    5.9560: real time    5.9563

 eigenvalue-minimisations  :  1704
 total energy-change (2. order) :-0.1091394E-10  (-0.1625013E-09)
 number of electron     128.0000001 magnetization 
 augmentation part        9.2396089 magnetization 

 Free energy of the ion-electron system (eV)
  ---------------------------------------------------
  alpha Z        PSCENC =       796.84035699
  Ewald energy   TEWEN  =     -8462.35405623
  -Hartree energ DENC   =     -1920.85891677
  -exchange      EXHF   =         0.00000000
  -V(xc)+E(xc)   XCENC  =       519.48996727
  PAW double counting   =     20172.21206683   -20108.82052938
  entropy T*S    EENTRO =        -0.00000000
  eigenvalues    EBANDS =     -1282.18521107
  atomic energy  EATOM  =     10184.52279430
  Solvation  Ediel_sol  =         0.00000000
  ---------------------------------------------------
  free energy    TOTEN  =      -101.15352807 eV

  energy without entropy =     -101.15352807  energy(sigma->0) =     -101.15352807


--------------------------------------------------------------------------------------------------------




 average (electrostatic) potential at core
  the test charge radii are     1.1929  0.7215
  (the norm of the test charge is              1.0000)
       1 -36.2362       2 -36.2363       3 -36.2362       4 -36.2362       5 -36.2362
       6 -36.2362       7 -36.2362       8 -36.2362       9 -70.7723      10 -70.7723
      11 -70.7787      12 -70.7659      13 -70.7787      14 -70.7659      15 -70.7723
      16 -70.7723
 
 
 
 E-fermi :   1.5494     XC(G=0): -10.2984     alpha+bet :-12.1858


 k-point     1 :       0.0000    0.0000    0.0000
  band No.  band energies     occupation 
      1     -30.7122      2.00000
      2     -30.5672      2.00000
      3     -30.5672      2.00000
      4     -30.5672      2.00000
      5     -30.5672      2.00000
      6     -30.5253      2.00000
      7     -30.5253      2.00000
      8     -30.5253      2.00000
      9     -15.0341      2.00000
     10     -15.0340      2.00000
     11     -15.0339      2.00000
     12     -15.0339      2.00000
     13     -13.4931      2.00000
     14     -13.4667      2.00000
     15     -13.4665      2.00000
     16     -13.4663      2.00000
     17     -13.3633      2.00000
     18     -13.3632      2.00000
     19     -13.3631      2.00000
     20     -12.7429      2.00000
     21     -12.7429      2.00000
     22     -12.7429      2.00000
     23     -12.7429      2.00000
     24     -12.7428      2.00000
     25     -12.7428      2.00000
     26     -12.4448      2.00000
     27     -12.4448      2.00000
     28     -12.4448      2.00000
     29     -12.4448      2.00000
     30     -12.4448      2.00000
     31     -12.4448      2.00000
     32     -12.4448      2.00000
     33     -12.4447      2.00000
     34     -12.3603      2.00000
     35     -12.3603      2.00000
     36     -12.3603      2.00000
     37     -11.1687      2.00000
     38     -11.1687      2.00000
     39     -11.1687      2.00000
     40     -11.1686      2.00000
     41      -0.7257      2.00000
     42      -0.7257      2.00000
     43      -0.7257      2.00000
     44      -0.7256      2.00000
     45       0.3448      2.00000
     46       0.3449      2.00000
     47       0.3449      2.00000
     48       0.3449      2.00000
     49       0.3450      2.00000
     50       0.3450      2.00000
     51       0.3450      2.00000
     52       0.3450      2.00000
     53       1.0786      2.00000
     54       1.0786      2.00000
     55       1.0786      2.00000
     56       1.4231      2.00000
     57       1.4231      2.00000
     58       1.4231      2.00000
     59       1.4231      2.00000
     60       1.4231      2.00000
     61       1.4232      2.00000
     62       1.5070      2.00000
     63       1.5070      2.00000
     64       1.5070      2.00000
     65       4.6622      0.00000
     66       4.6622      0.00000
     67       4.6622      0.00000
     68       5.3649      0.00000
     69       7.6812      0.00000
     70       7.6812      0.00000
     71       7.6813      0.00000
     72       8.0181      0.00000
     73       8.0181      0.00000
     74       8.0182      0.00000
     75       8.0182      0.00000
     76       9.3063      0.00000

 k-point     2 :       0.2500    0.0000    0.0000
  band No.  band energies     occupation 
      1     -30.6914      2.00000
      2     -30.5888      2.00000
      3     -30.5612      2.00000
      4     -30.5611      2.00000
      5     -30.5610      2.00000
      6     -30.5316      2.00000
      7     -30.5315      2.00000
      8     -30.5314      2.00000
      9     -14.9023      2.00000
     10     -14.9023      2.00000
     11     -14.9019      2.00000
     12     -14.8750      2.00000
     13     -13.9828      2.00000
     14     -13.9826      2.00000
     15     -13.9824      2.00000
     16     -13.8598      2.00000
     17     -13.1014      2.00000
     18     -13.0998      2.00000
     19     -13.0983      2.00000
     20     -12.7010      2.00000
     21     -12.7010      2.00000
     22     -12.7010      2.00000
     23     -12.5604      2.00000
     24     -12.5599      2.00000
     25     -12.5593      2.00000
     26     -12.4904      2.00000
     27     -12.4904      2.00000
     28     -12.4903      2.00000
     29     -12.4328      2.00000
     30     -12.4327      2.00000
     31     -12.3743      2.00000
     32     -12.3731      2.00000
     33     -12.3694      2.00000
     34     -12.3680      2.00000
     35     -12.3672      2.00000
     36     -12.0444      2.00000
     37     -11.3366      2.00000
     38     -11.3365      2.00000
     39     -11.3365      2.00000
     40     -11.2764      2.00000
     41      -0.4790      2.00000
     42      -0.4392      2.00000
     43      -0.4389      2.00000
     44      -0.4386      2.00000
     45       0.4586      2.00000
     46       0.4589      2.00000
     47       0.4592      2.00000
     48       0.4899      2.00000
     49       0.4899      2.00000
     50       0.4979      2.00000
     51       0.4980      2.00000
     52       0.4980      2.00000
     53       0.9003      2.00000
     54       0.9004      2.00000
     55       0.9006      2.00000
     56       1.0366      2.00000
     57       1.1383      2.00000
     58       1.1387      2.00000
     59       1.1391      2.00000
     60       1.2594      2.00000
     61       1.2594      2.00000
     62       1.2595      2.00000
     63       1.3051      2.00000
     64       1.3051      2.00000
     65       5.1680      0.00000
     66       5.1688      0.00000
     67       5.1696      0.00000
     68       6.0774      0.00000
     69       7.5183      0.00000
     70       7.7741      0.00000
     71       7.7878      0.00000
     72       7.7882      0.00000
     73       7.7893      0.00000
     74       7.9923      0.00000
     75       7.9924      0.00000
     76       8.9345      0.00000

 k-point     3 :       0.5000    0.0000    0.0000
  band No.  band energies     occupation 
      1     -30.6409      2.00000
      2     -30.6401      2.00000
      3     -30.5468      2.00000
      4     -30.5464      2.00000
      5     -30.5464      2.00000
      6     -30.5464      2.00000
      7     -30.5464      2.00000
      8     -30.5459      2.00000
      9     -14.5385      2.00000
     10     -14.5335      2.00000
     11     -14.5291      2.00000
     12     -14.5284      2.00000
     13     -14.5244      2.00000
     14     -14.5191      2.00000
     15     -14.4440      2.00000
     16     -14.4353      2.00000
     17     -12.8309      2.00000
     18     -12.8282      2.00000
     19     -12.8280      2.00000
     20     -12.8266      2.00000
     21     -12.8265      2.00000
     22     -12.8238      2.00000
     23     -12.5986      2.00000
     24     -12.5986      2.00000
     25     -12.5976      2.00000
     26     -12.5974      2.00000
     27     -12.5964      2.00000
     28     -12.5963      2.00000
     29     -12.4036      2.00000
     30     -12.4032      2.00000
     31     -12.4031      2.00000
     32     -12.4026      2.00000
     33     -11.7844      2.00000
     34     -11.7840      2.00000
     35     -11.7839      2.00000
     36     -11.7831      2.00000
     37     -11.7831      2.00000
     38     -11.7827      2.00000
     39     -11.5892      2.00000
     40     -11.5866      2.00000
     41       0.1841      2.00000
     42       0.1921      2.00000
     43       0.2518      2.00000
     44       0.2543      2.00000
     45       0.2543      2.00000
     46       0.2598      2.00000
     47       0.2599      2.00000
     48       0.2623      2.00000
     49       0.7412      2.00000
     50       0.7435      2.00000
     51       0.7462      2.00000
     52       0.7474      2.00000
     53       0.7502      2.00000
     54       0.7524      2.00000
     55       0.8599      2.00000
     56       0.8643      2.00000
     57       0.8674      2.00000
     58       0.8704      2.00000
     59       0.8716      2.00000
     60       0.8721      2.00000
     61       0.8751      2.00000
     62       0.8772      2.00000
     63       0.8795      2.00000
     64       0.8832      2.00000
     65       6.4349      0.00000
     66       6.4369      0.00000
     67       6.4392      0.00000
     68       6.4440      0.00000
     69       6.4463      0.00000
     70       6.4482      0.00000
     71       7.4319      0.00000
     72       7.4366      0.00000
     73       7.6362      0.00000
     74       7.6364      0.00000
     75       8.8365      0.00000
     76       8.8484      0.00000

 k-point     4 :       0.0000    0.2500    0.0000
  band No.  band energies     occupation 
      1     -30.6914      2.00000
      2     -30.5888      2.00000
      3     -30.5613      2.00000
      4     -30.5611      2.00000
      5     -30.5610      2.00000
      6     -30.5317      2.00000
      7     -30.5315      2.00000
      8     -30.5313      2.00000
      9     -14.9025      2.00000
     10     -14.9021      2.00000
     11     -14.9019      2.00000
     12     -14.8750      2.00000
     13     -13.9829      2.00000
     14     -13.9826      2.00000
     15     -13.9823      2.00000
     16     -13.8598      2.00000
     17     -13.1025      2.00000
     18     -13.0998      2.00000
     19     -13.0971      2.00000
     20     -12.7010      2.00000
     21     -12.7010      2.00000
     22     -12.7010      2.00000
     23     -12.5609      2.00000
     24     -12.5599      2.00000
     25     -12.5589      2.00000
     26     -12.4904      2.00000
     27     -12.4904      2.00000
     28     -12.4904      2.00000
     29     -12.4328      2.00000
     30     -12.4328      2.00000
     31     -12.3738      2.00000
     32     -12.3736      2.00000
     33     -12.3695      2.00000
     34     -12.3680      2.00000
     35     -12.3671      2.00000
     36     -12.0444      2.00000
     37     -11.3366      2.00000
     38     -11.3365      2.00000
     39     -11.3365      2.00000
     40     -11.2764      2.00000
     41      -0.4789      2.00000
     42      -0.4394      2.00000
     43      -0.4389      2.00000
     44      -0.4384      2.00000
     45       0.4583      2.00000
     46       0.4589      2.00000
     47       0.4593      2.00000
     48       0.4898      2.00000
     49       0.4899      2.00000
     50       0.4978      2.00000
     51       0.4981      2.00000
     52       0.4981      2.00000
     53       0.9001      2.00000
     54       0.9004      2.00000
     55       0.9008      2.00000
     56       1.0366      2.00000
     57       1.1380      2.00000
     58       1.1387      2.00000
     59       1.1395      2.00000
     60       1.2593      2.00000
     61       1.2594      2.00000
     62       1.2596      2.00000
     63       1.3051      2.00000
     64       1.3051      2.00000
     65       5.1674      0.00000
     66       5.1688      0.00000
     67       5.1701      0.00000
     68       6.0774      0.00000
     69       7.5182      0.00000
     70       7.7743      0.00000
     71       7.7871      0.00000
     72       7.7882      0.00000
     73       7.7898      0.00000
     74       7.9924      0.00000
     75       7.9925      0.00000
     76       8.9350      0.00000

 k-point     5 :       0.2500    0.2500    0.0000
  band No.  band energies     occupation 
      1     -30.6846      2.00000
      2     -30.5685      2.00000
      3     -30.5682      2.00000
      4     -30.5682      2.00000
      5     -30.5679      2.00000
      6     -30.5524      2.00000
      7     -30.5244      2.00000
      8     -30.5244      2.00000
      9     -14.8686      2.00000
     10     -14.8681      2.00000
     11     -14.8679      2.00000
     12     -14.8678      2.00000
     13     -14.0803      2.00000
     14     -13.9158      2.00000
     15     -13.9158      2.00000
     16     -13.8946      2.00000
     17     -13.2774      2.00000
     18     -13.2774      2.00000
     19     -12.8391      2.00000
     20     -12.8391      2.00000
     21     -12.6881      2.00000
     22     -12.6880      2.00000
     23     -12.6001      2.00000
     24     -12.5989      2.00000
     25     -12.5989      2.00000
     26     -12.5979      2.00000
     27     -12.4917      2.00000
[...]
      7     -30.5454      2.00000
      8     -30.5276      2.00000
      9     -14.7070      2.00000
     10     -14.7068      2.00000
     11     -14.6788      2.00000
     12     -14.6786      2.00000
     13     -14.3034      2.00000
     14     -14.3028      2.00000
     15     -14.2444      2.00000
     16     -14.1894      2.00000
     17     -13.1955      2.00000
     18     -12.7932      2.00000
     19     -12.7898      2.00000
     20     -12.7803      2.00000
     21     -12.7778      2.00000
     22     -12.7663      2.00000
     23     -12.7663      2.00000
     24     -12.6380      2.00000
     25     -12.6002      2.00000
     26     -12.6002      2.00000
     27     -12.5001      2.00000
     28     -12.5001      2.00000
     29     -12.4948      2.00000
     30     -12.4948      2.00000
     31     -12.4809      2.00000
     32     -12.3632      2.00000
     33     -11.9909      2.00000
     34     -11.9882      2.00000
     35     -11.9658      2.00000
     36     -11.7520      2.00000
     37     -11.5308      2.00000
     38     -11.5308      2.00000
     39     -11.4766      2.00000
     40     -11.4765      2.00000
     41      -0.1818      2.00000
     42      -0.1818      2.00000
     43      -0.1091      2.00000
     44      -0.1091      2.00000
     45       0.4601      2.00000
     46       0.4840      2.00000
     47       0.4846      2.00000
     48       0.5293      2.00000
     49       0.6268      2.00000
     50       0.6268      2.00000
     51       0.6311      2.00000
     52       0.6314      2.00000
     53       0.7078      2.00000
     54       0.7081      2.00000
     55       0.8196      2.00000
     56       0.8197      2.00000
     57       0.8815      2.00000
     58       0.8822      2.00000
     59       0.9229      2.00000
     60       0.9288      2.00000
     61       1.0316      2.00000
     62       1.2205      2.00000
     63       1.2234      2.00000
     64       1.3403      2.00000
     65       5.7602      0.00000
     66       5.7640      0.00000
     67       6.2064      0.00000
     68       6.8704      0.00000
     69       7.0534      0.00000
     70       7.0534      0.00000
     71       7.2288      0.00000
     72       7.8216      0.00000
     73       7.8216      0.00000
     74       8.1718      0.00000
     75       8.1719      0.00000
     76       8.2402      0.00000

 k-point    17 :       0.5000   -0.2500    0.2500
  band No.  band energies     occupation 
      1     -30.6042      2.00000
      2     -30.6035      2.00000
      3     -30.6035      2.00000
      4     -30.6028      2.00000
      5     -30.5367      2.00000
      6     -30.5366      2.00000
      7     -30.5365      2.00000
      8     -30.5364      2.00000
      9     -14.4812      2.00000
     10     -14.4808      2.00000
     11     -14.4718      2.00000
     12     -14.4714      2.00000
     13     -14.4672      2.00000
     14     -14.4670      2.00000
     15     -14.4585      2.00000
     16     -14.4575      2.00000
     17     -12.9939      2.00000
     18     -12.9917      2.00000
     19     -12.9917      2.00000
     20     -12.9895      2.00000
     21     -12.6966      2.00000
     22     -12.6963      2.00000
     23     -12.6953      2.00000
     24     -12.6949      2.00000
     25     -12.6332      2.00000
     26     -12.6316      2.00000
     27     -12.6316      2.00000
     28     -12.6300      2.00000
     29     -12.4656      2.00000
     30     -12.4656      2.00000
     31     -12.4651      2.00000
     32     -12.4650      2.00000
     33     -11.6649      2.00000
     34     -11.6643      2.00000
     35     -11.6641      2.00000
     36     -11.6635      2.00000
     37     -11.6330      2.00000
     38     -11.6321      2.00000
     39     -11.6316      2.00000
     40     -11.6308      2.00000
     41       0.0023      2.00000
     42       0.0036      2.00000
     43       0.0050      2.00000
     44       0.0061      2.00000
     45       0.1213      2.00000
     46       0.1216      2.00000
     47       0.1229      2.00000
     48       0.1231      2.00000
     49       0.7013      2.00000
     50       0.7018      2.00000
     51       0.7055      2.00000
     52       0.7060      2.00000
     53       0.7897      2.00000
     54       0.7898      2.00000
     55       0.7982      2.00000
     56       0.7983      2.00000
     57       1.0454      2.00000
     58       1.0465      2.00000
     59       1.0473      2.00000
     60       1.0484      2.00000
     61       1.2254      2.00000
     62       1.2260      2.00000
     63       1.2266      2.00000
     64       1.2272      2.00000
     65       6.4797      0.00000
     66       6.4865      0.00000
     67       6.4866      0.00000
     68       6.4934      0.00000
     69       7.5957      0.00000
     70       7.6038      0.00000
     71       7.6041      0.00000
     72       7.6125      0.00000
     73       7.8458      0.00000
     74       7.8515      0.00000
     75       7.8595      0.00000
     76       7.9284      0.00000

 k-point    18 :       0.0000    0.5000    0.5000
  band No.  band energies     occupation 
      1     -30.6182      2.00000
      2     -30.6182      2.00000
      3     -30.5697      2.00000
      4     -30.5692      2.00000
      5     -30.5692      2.00000
      6     -30.5687      2.00000
      7     -30.5235      2.00000
      8     -30.5235      2.00000
      9     -14.6638      2.00000
     10     -14.6633      2.00000
     11     -14.6630      2.00000
     12     -14.6624      2.00000
     13     -14.2371      2.00000
     14     -14.2370      2.00000
     15     -14.1704      2.00000
     16     -14.1703      2.00000
     17     -13.0634      2.00000
     18     -13.0634      2.00000
     19     -13.0634      2.00000
     20     -13.0634      2.00000
     21     -12.8172      2.00000
     22     -12.8146      2.00000
     23     -12.8146      2.00000
     24     -12.8120      2.00000
     25     -12.5540      2.00000
     26     -12.5540      2.00000
     27     -12.5540      2.00000
     28     -12.5540      2.00000
     29     -12.4496      2.00000
     30     -12.4485      2.00000
     31     -12.4485      2.00000
     32     -12.4475      2.00000
     33     -11.8515      2.00000
     34     -11.8514      2.00000
     35     -11.7811      2.00000
     36     -11.7810      2.00000
     37     -11.4501      2.00000
     38     -11.4491      2.00000
     39     -11.4490      2.00000
     40     -11.4480      2.00000
     41      -0.2278      2.00000
     42      -0.2262      2.00000
     43      -0.2261      2.00000
     44      -0.2244      2.00000
     45       0.1322      2.00000
     46       0.1323      2.00000
     47       0.3548      2.00000
     48       0.3550      2.00000
     49       0.4550      2.00000
     50       0.4561      2.00000
     51       0.4563      2.00000
     52       0.4574      2.00000
     53       1.0644      2.00000
     54       1.0655      2.00000
     55       1.0655      2.00000
     56       1.0656      2.00000
     57       1.0658      2.00000
     58       1.0677      2.00000
     59       1.0677      2.00000
     60       1.0703      2.00000
     61       1.3625      2.00000
     62       1.3625      2.00000
     63       1.3625      2.00000
     64       1.3626      2.00000
     65       5.7997      0.00000
     66       5.7998      0.00000
     67       7.3877      0.00000
     68       7.3877      0.00000
     69       7.4616      0.00000
     70       7.4621      0.00000
     71       7.4621      0.00000
     72       7.4622      0.00000
     73       7.6091      0.00000
     74       7.6164      0.00000
     75       7.6164      0.00000
     76       7.6242      0.00000


--------------------------------------------------------------------------------------------------------


 soft charge-density along one line, spin component           1
         0         1         2         3         4         5         6         7         8         9
 total charge-density along one line
 
 pseudopotential strength for first ion, spin component:           1
-11.809  -2.630  -0.000  -0.000   0.000  -0.000  -0.000   0.000
 -2.630  -1.831   0.000   0.000   0.000   0.000   0.000   0.000
 -0.000   0.000 -15.130  -0.000   0.000 -14.842  -0.000   0.000
 -0.000   0.000  -0.000 -15.130   0.000  -0.000 -14.842   0.000
  0.000   0.000   0.000   0.000 -15.130   0.000   0.000 -14.842
 -0.000   0.000 -14.842  -0.000   0.000 -14.559  -0.000   0.000
 -0.000   0.000  -0.000 -14.842   0.000  -0.000 -14.559   0.000
  0.000   0.000   0.000   0.000 -14.842   0.000   0.000 -14.559
  0.000   0.000   0.000   0.000  -0.000   0.000   0.000  -0.000
 -0.000  -0.000  -0.000  -0.000   0.000  -0.000  -0.000   0.000
  0.000   0.000   0.000  -0.000   0.000   0.000  -0.000   0.000
  0.000   0.000   0.000   0.000  -0.000   0.000   0.000  -0.000
 -0.000  -0.000   0.000  -0.000  -0.000   0.000  -0.000  -0.000
  0.000   0.000   0.000   0.000  -0.000   0.000   0.000  -0.000
 -0.000  -0.000  -0.000  -0.000   0.000  -0.000  -0.000   0.000
  0.000   0.000   0.000  -0.000   0.000   0.000  -0.000   0.000
  0.000   0.000   0.000   0.000  -0.000   0.000   0.000  -0.000
 -0.000  -0.000   0.000  -0.000  -0.000   0.000  -0.000  -0.000
 total augmentation occupancy for first ion, spin component:           1
  1.996  -0.015   0.000   0.000   0.000  -0.000  -0.000   0.000   0.000  -0.000   0.000   0.000  -0.000  -0.000   0.000  -0.000
 -0.015   0.595  -0.018  -0.018   0.000   0.018   0.018   0.000   0.000  -0.000   0.000   0.000  -0.000  -0.000   0.000  -0.000
  0.000  -0.018  11.951  -0.001   0.000 -10.275   0.001  -0.000  -0.000   0.011   0.075   0.000   0.130   0.000  -0.006  -0.042
  0.000  -0.018  -0.001  11.951   0.000   0.001 -10.275   0.000   0.000   0.011  -0.151   0.000  -0.000  -0.000  -0.006   0.083
  0.000   0.000   0.000   0.000  11.950  -0.000   0.000 -10.274   0.011   0.000   0.000   0.011  -0.000  -0.006   0.000  -0.000
 -0.000   0.018 -10.275   0.001  -0.000  10.626  -0.001   0.000   0.000  -0.009  -0.073   0.000  -0.126  -0.000   0.005   0.041
 -0.000   0.018   0.001 -10.275   0.000  -0.001  10.626   0.000  -0.000  -0.009   0.146   0.000   0.000   0.000   0.005  -0.081
  0.000   0.000  -0.000   0.000 -10.274   0.000   0.000  10.624  -0.009   0.000   0.000  -0.009   0.000   0.005   0.000  -0.000
  0.000   0.000  -0.000   0.000   0.011   0.000  -0.000  -0.009   2.475   0.000  -0.000  -0.000  -0.000  -1.346   0.000   0.000
 -0.000  -0.000   0.011   0.011   0.000  -0.009  -0.009   0.000   0.000   2.476  -0.000   0.000   0.001   0.000  -1.346   0.000
  0.000   0.000   0.075  -0.151   0.000  -0.073   0.146  -0.000  -0.000  -0.000   9.115   0.000   0.001   0.000   0.000  -5.031
  0.000   0.000   0.000   0.000   0.011   0.000   0.000  -0.009  -0.000   0.000   0.000   2.475   0.000   0.000   0.000   0.000
 -0.000  -0.000   0.130  -0.000  -0.000  -0.126   0.000   0.000  -0.000   0.001   0.001   0.000   9.114  -0.000  -0.000  -0.000
 -0.000  -0.000   0.000  -0.000  -0.006  -0.000   0.000   0.005  -1.346   0.000   0.000   0.000  -0.000   0.732   0.000  -0.000
  0.000   0.000  -0.006  -0.006   0.000   0.005   0.005   0.000   0.000  -1.346   0.000   0.000  -0.000   0.000   0.732  -0.000
 -0.000  -0.000  -0.042   0.083   0.000   0.041  -0.081  -0.000   0.000   0.000  -5.031   0.000  -0.000  -0.000  -0.000   2.781
  0.000   0.000   0.000   0.000  -0.006   0.000   0.000   0.005   0.000   0.000   0.000  -1.346   0.000  -0.000  -0.000   0.000
  0.000   0.000  -0.072   0.000   0.000   0.070  -0.000   0.000  -0.000  -0.000  -0.000   0.000  -5.030   0.000   0.000   0.000


------------------------ aborting loop because EDIFF is reached ----------------------------------------


    CHARGE:  cpu time    0.8560: real time    0.8526
    FORLOC:  cpu time    0.0160: real time    0.0187
    FORNL :  cpu time    4.4760: real time    4.4766
    STRESS:  cpu time    8.8240: real time    8.8262
    FORCOR:  cpu time    0.1600: real time    0.1612
    FORHAR:  cpu time    0.0520: real time    0.0509
    MIXING:  cpu time    0.0040: real time    0.0068
    OFIELD:  cpu time    0.0000: real time    0.0000

  FORCE on cell =-STRESS in cart. coord.  units (eV):
  Direction    XX          YY          ZZ          XY          YZ          ZX
  --------------------------------------------------------------------------------------
  Alpha Z   796.84036   796.84036   796.84036
  Ewald   -2820.79918 -2820.78768 -2820.78768     0.00000    -0.01643     0.00000
  Hartree   640.28357   640.28759   640.28759     0.00000    -0.01004     0.00000
  E(xc)    -536.23418  -536.23415  -536.23415     0.00000    -0.00002     0.00000
  Local     283.78736   283.77126   283.77126     0.00004     0.02720     0.00004
  n-local  -605.05618  -605.27450  -604.83924    -1.32537     0.00022     0.00001
  augment    80.65896    80.65909    80.65909    -0.00005    -0.00011    -0.00005
  Kinetic  2160.51524  2160.55001  2160.48517     3.27484    -0.00098    -0.00001
  Fock        0.00000     0.00000     0.00000     0.00000     0.00000     0.00000
  -------------------------------------------------------------------------------------
  Total      -0.00406    -0.00282    -0.00282    -0.00000    -0.00016     0.00000
  in kB      -0.02405    -0.01669    -0.01669    -0.00000    -0.00093     0.00000
  external pressure =       -0.02 kB  Pullay stress =        0.00 kB


 VOLUME and BASIS-vectors are now :
 -----------------------------------------------------------------------------
  energy-cutoff  :      800.00
  volume of cell :      270.68
      direct lattice vectors                 reciprocal lattice vectors
     0.000000000  5.134209980  5.134209980    -0.097385966  0.097385966  0.097385966
     5.134209980  0.000000000  5.134209980     0.097385966 -0.097385966  0.097385966
     5.134209980  5.134209980  0.000000000     0.097385966  0.097385966 -0.097385966

  length of vectors
     7.260869386  7.260869386  7.260869386     0.168677442  0.168677442  0.168677442


 FORCES acting on ions
    electron-ion (+dipol)            ewald-force                    non-local-force                 convergence-correction
 -----------------------------------------------------------------------------------------------
   0.108E-08 0.183E+01 0.183E+01   0.224E-13 -.186E+01 -.186E+01   0.000E+00 -.251E-01 -.251E-01   0.164E-11 0.732E-05 0.732E-05
   -.282E-08 -.816E+00 -.816E+00   0.142E-13 0.865E+00 0.865E+00   0.000E+00 -.238E-01 -.238E-01   -.478E-12 -.728E-05 -.728E-05
   -.510E+00 0.165E+00 -.307E+00   0.544E+00 -.168E+00 0.321E+00   -.187E-01 0.105E-02 -.518E-02   -.686E-05 -.557E-07 0.871E-08
   0.510E+00 -.307E+00 0.165E+00   -.544E+00 0.321E+00 -.168E+00   0.187E-01 -.518E-02 0.105E-02   0.686E-05 0.871E-08 -.557E-07
   -.510E+00 -.307E+00 0.165E+00   0.544E+00 0.321E+00 -.168E+00   -.187E-01 -.518E-02 0.105E-02   -.686E-05 0.871E-08 -.557E-07
   0.510E+00 0.165E+00 -.307E+00   -.544E+00 -.168E+00 0.321E+00   0.187E-01 0.105E-02 -.518E-02   0.686E-05 -.557E-07 0.871E-08
   0.213E-10 0.203E+00 0.203E+00   0.142E-13 -.223E+00 -.223E+00   -.169E-20 0.135E-01 0.135E-01   0.580E-12 0.691E-05 0.691E-05
   -.247E-10 -.141E+00 -.141E+00   0.157E-13 0.158E+00 0.158E+00   0.000E+00 -.105E-01 -.105E-01   -.492E-12 -.701E-05 -.701E-05
   -.114E-02 -.920E-01 -.920E-01   0.119E-02 0.945E-01 0.945E-01   -.868E-04 -.401E-02 -.401E-02   -.190E-06 -.258E-06 -.258E-06
   0.300E-02 0.233E+00 0.233E+00   -.312E-02 -.245E+00 -.245E+00   0.116E-03 0.155E-01 0.155E-01   0.514E-06 -.858E-08 -.858E-08
   0.240E-09 -.736E+00 0.236E+00   -.139E-13 0.775E+00 -.248E+00   0.000E+00 -.356E-01 0.156E-01   -.229E-11 0.668E-07 0.472E-06
   0.204E-09 0.230E+00 -.733E+00   -.166E-13 -.242E+00 0.772E+00   0.000E+00 0.153E-01 -.362E-01   0.380E-11 0.278E-06 -.409E-06
   0.229E-09 0.236E+00 -.736E+00   -.114E-13 -.248E+00 0.775E+00   0.000E+00 0.156E-01 -.356E-01   -.229E-11 0.472E-06 0.668E-07
   0.211E-09 -.733E+00 0.230E+00   -.139E-13 0.772E+00 -.242E+00   0.000E+00 -.362E-01 0.153E-01   0.379E-11 -.409E-06 0.278E-06
   -.300E-02 0.233E+00 0.233E+00   0.312E-02 -.245E+00 -.245E+00   -.116E-03 0.155E-01 0.155E-01   -.514E-06 -.857E-08 -.857E-08
   0.114E-02 -.920E-01 -.920E-01   -.119E-02 0.945E-01 0.945E-01   0.868E-04 -.401E-02 -.401E-02   0.190E-06 -.258E-06 -.258E-06
 -----------------------------------------------------------------------------------------------
   0.120E-08 0.722E-01 0.722E-01   -.382E-14 0.833E-15 0.201E-13   0.136E-19 -.722E-01 -.722E-01   -.133E-11 -.275E-06 -.275E-06
 
 
 POSITION                                       TOTAL-FORCE (eV/Angst)
 -----------------------------------------------------------------------------------
      0.00000      0.00707      0.00707         0.000000     -0.050767     -0.050767
      0.00000      2.56710      2.56710        -0.000000      0.024372      0.024372
      2.56710      0.00000      2.56710         0.015602     -0.002531      0.008769
      2.56710      2.56710      5.13421        -0.015602      0.008769     -0.002531
      2.56710      2.56710      0.00000         0.015602      0.008769     -0.002531
      2.56710      5.13421      2.56710        -0.015602     -0.002531      0.008769
      5.13421      2.56710      2.56710         0.000000     -0.006833     -0.006833
      5.13421      5.13421      5.13421         0.000000      0.005844      0.005844
      2.56710      2.56710      2.56710        -0.000032     -0.001462     -0.001462
      2.56710      5.13421      5.13421        -0.000002      0.003099      0.003099
      5.13421      2.56710      5.13421         0.000000      0.002993      0.003102
      5.13421      5.13421      7.70131         0.000000      0.003094      0.002447
      5.13421      5.13421      2.56710         0.000000      0.003102      0.002993
      5.13421      7.70131      5.13421         0.000000      0.002447      0.003094
      7.70131      5.13421      5.13421         0.000002      0.003099      0.003099
      7.70131      7.70131      7.70131         0.000032     -0.001462     -0.001462
 -----------------------------------------------------------------------------------
    total drift:                                0.000000      0.000000      0.000000


--------------------------------------------------------------------------------------------------------



  FREE ENERGIE OF THE ION-ELECTRON SYSTEM (eV)
  ---------------------------------------------------
  free  energy   TOTEN  =      -101.15352807 eV

  energy  without entropy=     -101.15352807  energy(sigma->0) =     -101.15352807
 


--------------------------------------------------------------------------------------------------------


    POTLOK:  cpu time    0.6720: real time    0.6711


--------------------------------------------------------------------------------------------------------


     LOOP+:  cpu time  207.9400: real time  208.0360
    4ORBIT:  cpu time    0.0000: real time    0.0000

 total amount of memory used by VASP on root node    97735. kBytes
========================================================================

   base      :      30000. kBytes
   nonl-proj :       9520. kBytes
   fftplans  :      26995. kBytes
   grid      :      11753. kBytes
   one-center:         31. kBytes
   wavefun   :      19436. kBytes
 
  
  
 General timing and accounting informations for this job:
 ========================================================
  
                  Total CPU time used (sec):      211.492
                            User time (sec):      209.996
                          System time (sec):        1.496
                         Elapsed time (sec):      211.590
  
                   Maximum memory used (kb):      201148.
                   Average memory used (kb):           0.
  
                          Minor page faults:       579115
                          Major page faults:            0
                 Voluntary context switches:           30
