 vasp.5.4.1 24Jun15 (build Nov 12 2015 13:14:48) complex                        
  
 executed on             IFC_2016 date 2017.02.27  15:12:16
 running on   16 total cores
 distrk:  each k-point on   16 cores,    1 groups
 distr:  one band on NCORES_PER_BAND=   8 cores,    2 groups


--------------------------------------------------------------------------------------------------------


 INCAR:
 POTCAR:    PAW_PBE Sr_sv 07Sep2000               
 POTCAR:    PAW_PBE O 08Apr2002                   
 POTCAR:    PAW_PBE Sr_sv 07Sep2000               
   VRHFIN =Sr: 4s4p5s                                                           
   LEXCH  = PE                                                                  
   EATOM  =   843.0319 eV,   61.9611 Ry                                         
                                                                                
   TITEL  = PAW_PBE Sr_sv 07Sep2000                                             
   LULTRA =        F    use ultrasoft PP ?                                      
   IUNSCR =        1    unscreen: 0-lin 1-nonlin 2-no                           
   RPACOR =    2.200    partial core radius                                     
   POMASS =   87.620; ZVAL   =   10.000    mass and valenz                      
   RCORE  =    2.500    outmost cutoff radius                                   
   RWIGS  =    4.040; RWIGS  =    2.138    wigner-seitz radius (au A)           
   ENMAX  =  229.353; ENMIN  =  172.014 eV                                      
   RCLOC  =    2.201    cutoff for local pot                                    
   LCOR   =        T    correct aug charges                                     
   LPAW   =        T    paw PP                                                  
   EAUG   =  366.804                                                            
   DEXC   =    0.000                                                            
   RMAX   =    2.547    core radius for proj-oper                               
   RAUG   =    1.300    factor for augmentation sphere                          
   RDEP   =    2.562    radius for radial grids                                 
   RDEPT  =    2.128    core radius for aug-charge                              
                                                                                
   Atomic configuration                                                         
   10 entries                                                                   
     n  l   j            E        occ.                                          
     1  0  0.50    -15934.8930   2.0000                                         
     2  0  0.50     -2157.6250   2.0000                                         
     2  1  1.50     -1917.0034   6.0000                                         
     3  0  0.50      -333.7288   2.0000                                         
     3  1  1.50      -256.0992   6.0000                                         
     3  2  2.50      -127.9971  10.0000                                         
     4  0  0.50       -40.8953   2.0000                                         
     5  0  0.50        -3.5257   1.9990                                         
     4  1  1.50       -22.8179   6.0000                                         
     4  2  1.50        -1.2815   0.0010                                         
   Description                                                                  
     l       E           TYP  RCUT    TYP  RCUT                                 
     0    -40.8953213     23  2.480                                             
     0     -3.5257161     23  2.480                                             
     1    -22.8178632     23  2.500                                             
     1    -24.1784458     23  2.500                                             
     2     -1.2814598     23  2.500                                             
     2      0.2279365     23  2.500                                             
  local pseudopotential read in
  partial core-charges read in
  partial kinetic energy density read in
  atomic valenz-charges read in
  non local Contribution for L=           0  read in
    real space projection operators read in
  non local Contribution for L=           0  read in
    real space projection operators read in
  non local Contribution for L=           1  read in
    real space projection operators read in
  non local Contribution for L=           1  read in
    real space projection operators read in
  non local Contribution for L=           2  read in
    real space projection operators read in
  non local Contribution for L=           2  read in
    real space projection operators read in
    PAW grid and wavefunctions read in
 
   number of l-projection  operators is LMAX  =           6
   number of lm-projection operators is LMMAX =          18
 
 POTCAR:    PAW_PBE O 08Apr2002                   
   VRHFIN =O: s2p4                                                              
   LEXCH  = PE                                                                  
   EATOM  =   432.3788 eV,   31.7789 Ry                                         
                                                                                
   TITEL  = PAW_PBE O 08Apr2002                                                 
   LULTRA =        F    use ultrasoft PP ?                                      
   IUNSCR =        1    unscreen: 0-lin 1-nonlin 2-no                           
   RPACOR =    1.200    partial core radius                                     
   POMASS =   16.000; ZVAL   =    6.000    mass and valenz                      
   RCORE  =    1.520    outmost cutoff radius                                   
   RWIGS  =    1.550; RWIGS  =    0.820    wigner-seitz radius (au A)           
   ENMAX  =  400.000; ENMIN  =  300.000 eV                                      
   ICORE  =        2    local potential                                         
   LCOR   =        T    correct aug charges                                     
   LPAW   =        T    paw PP                                                  
   EAUG   =  605.392                                                            
   DEXC   =    0.000                                                            
   RMAX   =    1.553    core radius for proj-oper                               
   RAUG   =    1.300    factor for augmentation sphere                          
   RDEP   =    1.550    radius for radial grids                                 
   RDEPT  =    1.329    core radius for aug-charge                              
                                                                                
   Atomic configuration                                                         
    4 entries                                                                   
     n  l   j            E        occ.                                          
     1  0  0.50      -514.6923   2.0000                                         
     2  0  0.50       -23.9615   2.0000                                         
     2  1  0.50        -9.0305   4.0000                                         
     3  2  1.50        -9.5241   0.0000                                         
   Description                                                                  
     l       E           TYP  RCUT    TYP  RCUT                                 
     0    -23.9615318     23  1.200                                             
     0     -9.5240782     23  1.200                                             
     1     -9.0304911     23  1.520                                             
     1      8.1634956     23  1.520                                             
     2     -9.5240782      7  1.500                                             
  local pseudopotential read in
  partial core-charges read in
  partial kinetic energy density read in
  kinetic energy density of atom read in
  atomic valenz-charges read in
  non local Contribution for L=           0  read in
    real space projection operators read in
  non local Contribution for L=           0  read in
    real space projection operators read in
  non local Contribution for L=           1  read in
    real space projection operators read in
  non local Contribution for L=           1  read in
    real space projection operators read in
    PAW grid and wavefunctions read in
 
   number of l-projection  operators is LMAX  =           4
   number of lm-projection operators is LMMAX =           8
 

 ----------------------------------------------------------------------------- 
|                                                                             |
|  ADVICE TO THIS USER RUNNING 'VASP/VAMP'   (HEAR YOUR MASTER'S VOICE ...):  |
|                                                                             |
|      You enforced a specific xc-type in the INCAR file,                     |
|      a different type was found on the POTCAR file                          |
|          I HOPE YOU KNOW, WHAT YOU ARE  DOING                               |
|                                                                             |
 ----------------------------------------------------------------------------- 

  PAW_PBE Sr_sv 07Sep2000               :
 energy of atom  1       EATOM= -843.0319
 kinetic energy error for atom=    0.0002 (will be added to EATOM!!)
  PAW_PBE O 08Apr2002                   :
 energy of atom  2       EATOM= -432.3788
 kinetic energy error for atom=    0.0041 (will be added to EATOM!!)
 
 
 POSCAR: Sr O                                    
  positions in direct lattice
  No initial velocities read in
 exchange correlation table for  LEXCH =       14
   RHO(1)=    0.500       N(1)  =     2000
   RHO(2)=  100.500       N(2)  =     4000
 


--------------------------------------------------------------------------------------------------------


 ion  position               nearest neighbor table
   1  0.000  0.000  0.000-  10 2.57  11 2.57  12 2.57  13 2.57  14 2.57  15 2.57   2 3.63   3 3.63
                             5 3.63   5 3.63   6 3.63   7 3.63   3 3.63   4 3.63   7 3.63   2 3.63
   2  0.500  0.000  0.000-  11 2.57  12 2.57  13 2.57  14 2.57  16 2.57   9 2.57   1 3.63   4 3.63
                             6 3.63   5 3.63   6 3.63   8 3.63   3 3.63   4 3.63   8 3.63   1 3.63
   3  0.000  0.500  0.000-  10 2.57  12 2.57  13 2.57  15 2.57  16 2.57   9 2.57   1 3.63   4 3.63
                             7 3.63   5 3.63   7 3.63   8 3.63   1 3.63   2 3.63   5 3.63   2 3.63
   4  0.500  0.500  0.000-   9 2.56  10 2.57  11 2.57  14 2.57  15 2.57  16 2.57   2 3.63   3 3.63
                             8 3.63   6 3.63   7 3.63   8 3.63   1 3.63   2 3.63   6 3.63   1 3.63
   5  0.000  0.000  0.500-  10 2.57  11 2.57  14 2.57  15 2.57  16 2.57   9 2.57   1 3.63   6 3.63
                             7 3.63   1 3.63   2 3.63   3 3.63   3 3.63   7 3.63   8 3.63   2 3.63
   6  0.500  0.000  0.500-   9 2.56  10 2.57  12 2.57  13 2.57  15 2.57  16 2.57   2 3.63   5 3.63
                             8 3.63   1 3.63   2 3.63   4 3.63   4 3.63   7 3.63   8 3.63   1 3.63
   7  0.000  0.500  0.500-  11 2.57  12 2.57  13 2.57  14 2.57  16 2.57   9 2.57   3 3.63   5 3.63
                             8 3.63   1 3.63   3 3.63   4 3.63   1 3.63   5 3.63   6 3.63   4 3.63
   8  0.500  0.500  0.500-  10 2.57  11 2.57  12 2.57  13 2.57  14 2.57  15 2.57   4 3.63   6 3.63
                             7 3.63   2 3.63   3 3.63   4 3.63   2 3.63   5 3.63   6 3.63   3 3.63
   9  0.251  0.250  0.250-   4 2.56   6 2.56   2 2.57   7 2.57   3 2.57   5 2.57
  10  0.750  0.250  0.250-   1 2.57   3 2.57   4 2.57   5 2.57   6 2.57   8 2.57
  11  0.250  0.750  0.250-   1 2.57   2 2.57   4 2.57   5 2.57   7 2.57   8 2.57
  12  0.750  0.750  0.250-   1 2.57   2 2.57   3 2.57   6 2.57   7 2.57   8 2.57
  13  0.250  0.250  0.750-   1 2.57   2 2.57   3 2.57   6 2.57   7 2.57   8 2.57
  14  0.750  0.250  0.750-   1 2.57   2 2.57   4 2.57   5 2.57   7 2.57   8 2.57
  15  0.250  0.750  0.750-   1 2.57   3 2.57   4 2.57   5 2.57   6 2.57   8 2.57
  16  0.750  0.750  0.750-   2 2.57   3 2.57   4 2.57   5 2.57   6 2.57   7 2.57
 
  LATTYP: Found a face centered cubic cell.
 ALAT       =    10.2684199605
  
  Lattice vectors:
  
 A1 = (   0.0000000000,   5.1342099802,   5.1342099802)
 A2 = (   5.1342099802,   0.0000000000,   5.1342099802)
 A3 = (   5.1342099802,   5.1342099802,   0.0000000000)


Analysis of symmetry for initial positions (statically):
=====================================================================
 Subroutine PRICEL returns:
 Original cell was already a primitive cell.
 

 Routine SETGRP: Setting up the symmetry group for a 
 face centered cubic supercell.


 Subroutine GETGRP returns: Found  4 space group operations
 (whereof  2 operations were pure point group operations)
 out of a pool of 48 trial point group operations.


The static configuration has the point symmetry C_1h.
 The point group associated with its full space group is C_2v.


Analysis of symmetry for dynamics (positions and initial velocities):
=====================================================================
 Subroutine PRICEL returns:
 Original cell was already a primitive cell.
 

 Routine SETGRP: Setting up the symmetry group for a 
 face centered cubic supercell.


 Subroutine GETGRP returns: Found  4 space group operations
 (whereof  2 operations were pure point group operations)
 out of a pool of 48 trial point group operations.


The dynamic configuration has the point symmetry C_1h.
 The point group associated with its full space group is C_2v.


 Subroutine INISYM returns: Found  4 space group operations
 (whereof  2 operations are pure point group operations),
 and found     1 'primitive' translations

 
 
 KPOINTS: Automatic 4x4x4                         

Automatic generation of k-mesh.
Space group operators:
 irot       det(A)        alpha          n_x          n_y          n_z        tau_x        tau_y        tau_z
    1     1.000000     0.000001     1.000000     0.000000     0.000000     0.000000     0.000000     0.000000
    2    -1.000000   180.000000     0.000000    -0.707107     0.707107     0.000000     0.000000     0.000000
    3     1.000000   180.000000     0.000000     0.707107     0.707107     0.500000     0.500000     0.500000
    4    -1.000000   180.000000     1.000000     0.000000     0.000000     0.500000     0.500000     0.500000
 
 Subroutine IBZKPT returns following result:
 ===========================================
 
 Found     18 irreducible k-points:
 
 Following reciprocal coordinates:
            Coordinates               Weight
  0.000000  0.000000  0.000000      1.000000
  0.250000  0.000000  0.000000      4.000000
  0.500000  0.000000  0.000000      2.000000
  0.000000  0.250000  0.000000      4.000000
  0.250000  0.250000  0.000000      4.000000
  0.500000  0.250000  0.000000      8.000000
 -0.250000  0.250000  0.000000      8.000000
  0.000000  0.500000  0.000000      2.000000
  0.250000  0.500000  0.000000      8.000000
  0.500000  0.500000  0.000000      2.000000
  0.000000  0.250000  0.250000      2.000000
  0.500000  0.250000  0.250000      2.000000
 -0.250000  0.250000  0.250000      4.000000
  0.000000  0.500000  0.250000      4.000000
 -0.250000  0.500000  0.250000      4.000000
  0.000000 -0.250000  0.250000      2.000000
  0.500000 -0.250000  0.250000      2.000000
  0.000000  0.500000  0.500000      1.000000
 
 Following cartesian coordinates:
            Coordinates               Weight
  0.000000  0.000000  0.000000      1.000000
 -0.024346  0.024346  0.024346      4.000000
 -0.048693  0.048693  0.048693      2.000000
  0.024346 -0.024346  0.024346      4.000000
  0.000000  0.000000  0.048693      4.000000
 -0.024346  0.024346  0.073039      8.000000
  0.048693 -0.048693  0.000000      8.000000
  0.048693 -0.048693  0.048693      2.000000
  0.024346 -0.024346  0.073039      8.000000
  0.000000  0.000000  0.097386      2.000000
  0.048693  0.000000  0.000000      2.000000
  0.000000  0.048693  0.048693      2.000000
  0.073039 -0.024346 -0.024346      4.000000
  0.073039 -0.024346  0.024346      4.000000
  0.097386 -0.048693 -0.000000      4.000000
  0.000000  0.048693 -0.048693      2.000000
 -0.048693  0.097386 -0.000000      2.000000
  0.097386  0.000000  0.000000      1.000000
 


--------------------------------------------------------------------------------------------------------




 Dimension of arrays:
   k-points           NKPTS =     18   k-points in BZ     NKDIM =     18   number of bands    NBANDS=     76
   number of dos      NEDOS =    301   number of ions     NIONS =     16
   non local maximal  LDIM  =      6   non local SUM 2l+1 LMDIM =     18
   total plane-waves  NPLWV = 343000
   max r-space proj   IRMAX =      1   max aug-charges    IRDMAX= 594561
   dimension x,y,z NGX =    70 NGY =   70 NGZ =   70
   dimension x,y,z NGXF=   140 NGYF=  140 NGZF=  140
   support grid    NGXF=   280 NGYF=  280 NGZF=  280
   ions per type =               8   8
 NGX,Y,Z   is equivalent  to a cutoff of  16.03, 16.03, 16.03 a.u.
 NGXF,Y,Z  is equivalent  to a cutoff of  32.05, 32.05, 32.05 a.u.


 I would recommend the setting:
   dimension x,y,z NGX =    67 NGY =   67 NGZ =   67
 SYSTEM =  SrO                                     
 POSCAR =  Sr O                                    

 Startparameter for this run:
   NWRITE =      2    write-flag & timer
   PREC   = accura    normal or accurate (medium, high low for compatibility)
   ISTART =      0    job   : 0-new  1-cont  2-samecut
   ICHARG =      2    charge: 1-file 2-atom 10-const
   ISPIN  =      1    spin polarized calculation?
   LNONCOLLINEAR =      F non collinear calculations
   LSORBIT =      F    spin-orbit coupling
   INIWAV =      1    electr: 0-lowe 1-rand  2-diag
   LASPH  =      T    aspherical Exc in radial PAW
   METAGGA=      F    non-selfconsistent MetaGGA calc.

 Electronic Relaxation 1
   ENCUT  =  800.0 eV  58.80 Ry    7.67 a.u.  16.75 16.75 16.75*2*pi/ulx,y,z
   ENINI  =  800.0     initial cutoff
   ENAUG  =  605.4 eV  augmentation charge cutoff
   NELM   =     60;   NELMIN=  2; NELMDL= -5     # of ELM steps 
   EDIFF  = 0.1E-07   stopping-criterion for ELM
   LREAL  =      F    real-space projection
   NLSPLINE    = F    spline interpolate recip. space projectors
   LCOMPAT=      F    compatible to vasp.4.4
   GGA_COMPAT  = T    GGA compatible to vasp.4.4-vasp.4.6
   LMAXPAW     = -100 max onsite density
   LMAXMIX     =    2 max onsite mixed and CHGCAR
   VOSKOWN=      0    Vosko Wilk Nusair interpolation
   ROPT   =    0.00000   0.00000
 Ionic relaxation
   EDIFFG = 0.1E-06   stopping-criterion for IOM
   NSW    =      0    number of steps for IOM
   NBLOCK =      1;   KBLOCK =      1    inner block; outer block 
   IBRION =     -1    ionic relax: 0-MD 1-quasi-New 2-CG
   NFREE  =      0    steps in history (QN), initial steepest desc. (CG)
   ISIF   =      2    stress and relaxation
   IWAVPR =     10    prediction:  0-non 1-charg 2-wave 3-comb
   ISYM   =      2    0-nonsym 1-usesym 2-fastsym
   LCORR  =      T    Harris-Foulkes like correction to forces

   POTIM  = 0.5000    time-step for ionic-motion
   TEIN   =    0.0    initial temperature
   TEBEG  =    0.0;   TEEND  =   0.0 temperature during run
   SMASS  =  -3.00    Nose mass-parameter (am)
   estimated Nose-frequenzy (Omega)   =  0.10E-29 period in steps =****** mass=  -0.120E-26a.u.
   SCALEE = 1.0000    scale energy and forces
   NPACO  =    256;   APACO  = 16.0  distance and # of slots for P.C.
   PSTRESS=    0.0 pullay stress

  Mass of Ions in am
   POMASS =  87.62 16.00
  Ionic Valenz
   ZVAL   =  10.00  6.00
  Atomic Wigner-Seitz radii
   RWIGS  =  -1.00 -1.00
  virtual crystal weights 
   VCA    =   1.00  1.00
   NELECT =     128.0000    total number of electrons
   NUPDOWN=      -1.0000    fix difference up-down

 DOS related values:
   EMIN   =  10.00;   EMAX   =-10.00  energy-range for DOS
   EFERMI =   0.00
   ISMEAR =     0;   SIGMA  =   0.01  broadening in eV -4-tet -1-fermi 0-gaus

 Electronic relaxation 2 (details)
   IALGO  =     38    algorithm
   LDIAG  =      T    sub-space diagonalisation (order eigenvalues)
   LSUBROT=      F    optimize rotation matrix (better conditioning)
   TURBO    =      0    0=normal 1=particle mesh
   IRESTART =      0    0=no restart 2=restart with 2 vectors
   NREBOOT  =      0    no. of reboots
   NMIN     =      0    reboot dimension
   EREF     =   0.00    reference energy to select bands
   IMIX   =      4    mixing-type and parameters
     AMIX     =   0.40;   BMIX     =  1.00
     AMIX_MAG =   1.60;   BMIX_MAG =  1.00
     AMIN     =   0.10
     WC   =   100.;   INIMIX=   1;  MIXPRE=   1;  MAXMIX= -45

 Intra band minimization:
   WEIMIN = 0.0000     energy-eigenvalue tresh-hold
   EBREAK =  0.33E-10  absolut break condition
   DEPER  =   0.30     relativ break condition  

   TIME   =   0.40     timestep for ELM

  volume/ion in A,a.u.               =      16.92       114.16
  Fermi-wavevector in a.u.,A,eV,Ry     =   1.275443  2.410239 22.133358  1.626756
  Thomas-Fermi vector in A             =   2.408155
 
 Write flags
   LWAVE  =      F    write WAVECAR
   LCHARG =      F    write CHGCAR
   LVTOT  =      F    write LOCPOT, total local potential
   LVHAR  =      F    write LOCPOT, Hartree potential only
   LELF   =      F    write electronic localiz. function (ELF)
   LORBIT =      0    0 simple, 1 ext, 2 COOP (PROOUT)


 Dipole corrections
   LMONO  =      F    monopole corrections only (constant potential shift)
   LDIPOL =      F    correct potential (dipole corrections)
   IDIPOL =      0    1-x, 2-y, 3-z, 4-all directions 
   EPSILON=  1.0000000 bulk dielectric constant

 Exchange correlation treatment:
   GGA     =    PS    GGA type
   LEXCH   =    14    internal setting for exchange type
   VOSKOWN=      0    Vosko Wilk Nusair interpolation
   LHFCALC =     F    Hartree Fock is set to
   LHFONE  =     F    Hartree Fock one center treatment
   AEXX    =    0.0000 exact exchange contribution

 Linear response parameters
   LEPSILON=     F    determine dielectric tensor
   LRPA    =     F    only Hartree local field effects (RPA)
   LNABLA  =     F    use nabla operator in PAW spheres
   LVEL    =     F    velocity operator in full k-point grid
   LINTERFAST=   F  fast interpolation
   KINTER  =     0    interpolate to denser k-point grid
   CSHIFT  =0.1000    complex shift for real part using Kramers Kronig
   OMEGAMAX=  -1.0    maximum frequency
   DEG_THRESHOLD= 0.2000000E-02 threshold for treating states as degnerate
   RTIME   =    0.100 relaxation time in fs

 Orbital magnetization related:
   ORBITALMAG=     F  switch on orbital magnetization
   LCHIMAG   =     F  perturbation theory with respect to B field
   DQ        =  0.001000  dq finite difference perturbation B field



--------------------------------------------------------------------------------------------------------


 Static calculation
 charge density and potential will be updated during run
 non-spin polarized calculation
 Variant of blocked Davidson
 Davidson routine will perform the subspace rotation
 perform sub-space diagonalisation
    after iterative eigenvector-optimisation
 modified Broyden-mixing scheme, WC =      100.0
 initial mixing is a Kerker type mixing with AMIX =  0.4000 and BMIX =      1.0000
 Hartree-type preconditioning will be used
 using additional bands           12
 reciprocal scheme for non local part
 use partial core corrections
 calculate Harris-corrections to forces 
   (improved forces if not selfconsistent)
 use gradient corrections 
 use of overlap-Matrix (Vanderbilt PP)
 Gauss-broadening in eV      SIGMA  =   0.01


--------------------------------------------------------------------------------------------------------


  energy-cutoff  :      800.00
  volume of cell :      270.68
      direct lattice vectors                 reciprocal lattice vectors
     0.000000000  5.134209980  5.134209980    -0.097385966  0.097385966  0.097385966
     5.134209980  0.000000000  5.134209980     0.097385966 -0.097385966  0.097385966
     5.134209980  5.134209980  0.000000000     0.097385966  0.097385966 -0.097385966

  length of vectors
     7.260869386  7.260869386  7.260869386     0.168677442  0.168677442  0.168677442


 
 k-points in units of 2pi/SCALE and weight: Automatic 4x4x4                         
   0.00000000  0.00000000  0.00000000       0.016
  -0.02434649  0.02434649  0.02434649       0.062
  -0.04869298  0.04869298  0.04869298       0.031
   0.02434649 -0.02434649  0.02434649       0.062
   0.00000000  0.00000000  0.04869298       0.062
  -0.02434649  0.02434649  0.07303947       0.125
   0.04869298 -0.04869298  0.00000000       0.125
   0.04869298 -0.04869298  0.04869298       0.031
   0.02434649 -0.02434649  0.07303947       0.125
   0.00000000  0.00000000  0.09738597       0.031
   0.04869298  0.00000000  0.00000000       0.031
   0.00000000  0.04869298  0.04869298       0.031
   0.07303947 -0.02434649 -0.02434649       0.062
   0.07303947 -0.02434649  0.02434649       0.062
   0.09738597 -0.04869298 -0.00000000       0.062
   0.00000000  0.04869298 -0.04869298       0.031
  -0.04869298  0.09738597 -0.00000000       0.031
   0.09738597  0.00000000  0.00000000       0.016
 
 k-points in reciprocal lattice and weights: Automatic 4x4x4                         
   0.00000000  0.00000000  0.00000000       0.016
   0.25000000  0.00000000  0.00000000       0.062
   0.50000000  0.00000000  0.00000000       0.031
   0.00000000  0.25000000  0.00000000       0.062
   0.25000000  0.25000000  0.00000000       0.062
   0.50000000  0.25000000  0.00000000       0.125
  -0.25000000  0.25000000  0.00000000       0.125
   0.00000000  0.50000000  0.00000000       0.031
   0.25000000  0.50000000  0.00000000       0.125
   0.50000000  0.50000000  0.00000000       0.031
   0.00000000  0.25000000  0.25000000       0.031
   0.50000000  0.25000000  0.25000000       0.031
  -0.25000000  0.25000000  0.25000000       0.062
   0.00000000  0.50000000  0.25000000       0.062
  -0.25000000  0.50000000  0.25000000       0.062
   0.00000000 -0.25000000  0.25000000       0.031
   0.50000000 -0.25000000  0.25000000       0.031
   0.00000000  0.50000000  0.50000000       0.016
 
 position of ions in fractional coordinates (direct lattice) 
   0.00000000  0.00000000  0.00000000
   0.50000000  0.00000000  0.00000000
   0.00000000  0.50000000  0.00000000
   0.50000000  0.50000000  0.00000000
   0.00000000  0.00000000  0.50000000
   0.50000000  0.00000000  0.50000000
   0.00000000  0.50000000  0.50000000
   0.50000000  0.50000000  0.50000000
   0.25137725  0.25000000  0.25000000
   0.75000000  0.25000000  0.25000000
   0.25000000  0.75000000  0.25000000
   0.75000000  0.75000000  0.25000000
   0.25000000  0.25000000  0.75000000
   0.75000000  0.25000000  0.75000000
   0.25000000  0.75000000  0.75000000
   0.75000000  0.75000000  0.75000000
 
 position of ions in cartesian coordinates  (Angst):
   0.00000000  0.00000000  0.00000000
   0.00000000  2.56710499  2.56710499
   2.56710499  0.00000000  2.56710499
   2.56710499  2.56710499  5.13420998
   2.56710499  2.56710499  0.00000000
   2.56710499  5.13420998  2.56710499
   5.13420998  2.56710499  2.56710499
   5.13420998  5.13420998  5.13420998
   2.56710499  2.57417606  2.57417606
   2.56710499  5.13420998  5.13420998
   5.13420998  2.56710499  5.13420998
   5.13420998  5.13420998  7.70131497
   5.13420998  5.13420998  2.56710499
   5.13420998  7.70131497  5.13420998
   7.70131497  5.13420998  5.13420998
   7.70131497  7.70131497  7.70131497
 


--------------------------------------------------------------------------------------------------------


 k-point  1 :   0.0000 0.0000 0.0000  plane waves:   13851
 k-point  2 :   0.2500 0.0000 0.0000  plane waves:   13905
 k-point  3 :   0.5000 0.0000 0.0000  plane waves:   13960
 k-point  4 :   0.0000 0.2500 0.0000  plane waves:   13905
 k-point  5 :   0.2500 0.2500 0.0000  plane waves:   13944
 k-point  6 :   0.5000 0.2500 0.0000  plane waves:   13909
 k-point  7 :  -0.2500 0.2500 0.0000  plane waves:   13873
 k-point  8 :   0.0000 0.5000 0.0000  plane waves:   13960
 k-point  9 :   0.2500 0.5000 0.0000  plane waves:   13909
 k-point 10 :   0.5000 0.5000 0.0000  plane waves:   13888
 k-point 11 :   0.0000 0.2500 0.2500  plane waves:   13944
 k-point 12 :   0.5000 0.2500 0.2500  plane waves:   13873
 k-point 13 :  -0.2500 0.2500 0.2500  plane waves:   13909
 k-point 14 :   0.0000 0.5000 0.2500  plane waves:   13909
 k-point 15 :  -0.2500 0.5000 0.2500  plane waves:   13868
 k-point 16 :   0.0000-0.2500 0.2500  plane waves:   13873
 k-point 17 :   0.5000-0.2500 0.2500  plane waves:   13868
 k-point 18 :   0.0000 0.5000 0.5000  plane waves:   13888

 maximum and minimum number of plane-waves per node :      1763     1688

 maximum number of plane-waves:     13960
 maximum index in each direction: 
   IXMAX=   16   IYMAX=   16   IZMAX=   16
   IXMIN=  -17   IYMIN=  -17   IZMIN=  -17

 NGX is ok and might be reduce to  68
 NGY is ok and might be reduce to  68
 NGZ is ok and might be reduce to  68

 parallel 3D FFT for wavefunctions:
    minimum data exchange during FFTs selected (reduces bandwidth)
 parallel 3D FFT for charge:
    minimum data exchange during FFTs selected (reduces bandwidth)


 total amount of memory used by VASP on root node    97735. kBytes
========================================================================

   base      :      30000. kBytes
   nonl-proj :       9520. kBytes
   fftplans  :      26995. kBytes
   grid      :      11753. kBytes
   one-center:         31. kBytes
   wavefun   :      19436. kBytes
 
     INWAV:  cpu time    0.0000: real time    0.0000
 Broyden mixing: mesh for mixing (old mesh)
   NGX = 33   NGY = 33   NGZ = 33
  (NGX  =140   NGY  =140   NGZ  =140)
  gives a total of  35937 points

 initial charge density was supplied:
 charge density of overlapping atoms calculated
 number of electron     128.0000000 magnetization 
 keeping initial charge density in first step


--------------------------------------------------------------------------------------------------------


 Maximum index for augmentation-charges        39792 (set IRDMAX)


--------------------------------------------------------------------------------------------------------


 First call to EWALD:  gamma=   0.274
 Maximum number of real-space cells 3x 3x 3
 Maximum number of reciprocal cells 3x 3x 3

 FEWALD executed in parallel
    FEWALD:  cpu time    0.0040: real time    0.0016


----------------------------------------- Iteration    1(   1)  ---------------------------------------


    POTLOK:  cpu time    0.1520: real time    0.1514
    SETDIJ:  cpu time    0.5240: real time    0.5251
     EDDAV:  cpu time    7.0840: real time    7.0869
       DOS:  cpu time    0.0000: real time    0.0014
    --------------------------------------------
      LOOP:  cpu time    7.7600: real time    7.7662

 eigenvalue-minimisations  :  2736
 total energy-change (2. order) : 0.1120523E+04  (-0.8586238E+04)
 number of electron     128.0000000 magnetization 
 augmentation part      128.0000000 magnetization 

 Free energy of the ion-electron system (eV)
  ---------------------------------------------------
  alpha Z        PSCENC =       796.84035699
  Ewald energy   TEWEN  =     -8462.35904785
  -Hartree energ DENC   =     -1828.63512329
  -exchange      EXHF   =         0.00000000
  -V(xc)+E(xc)   XCENC  =       513.00727025
  PAW double counting   =      7817.12183272    -7712.97334390
  entropy T*S    EENTRO =        -0.00037347
  eigenvalues    EBANDS =      -187.00116952
  atomic energy  EATOM  =     10184.52279430
  Solvation  Ediel_sol  =         0.00000000
  ---------------------------------------------------
  free energy    TOTEN  =      1120.52319622 eV

  energy without entropy =     1120.52356969  energy(sigma->0) =     1120.52338295


--------------------------------------------------------------------------------------------------------




----------------------------------------- Iteration    1(   2)  ---------------------------------------


     EDDAV:  cpu time    8.4080: real time    8.4156
       DOS:  cpu time    0.0040: real time    0.0003
    --------------------------------------------
      LOOP:  cpu time    8.4160: real time    8.4165

 eigenvalue-minimisations  :  3480
 total energy-change (2. order) :-0.1143515E+04  (-0.1101458E+04)
 number of electron     128.0000000 magnetization 
 augmentation part      128.0000000 magnetization 

 Free energy of the ion-electron system (eV)
  ---------------------------------------------------
  alpha Z        PSCENC =       796.84035699
  Ewald energy   TEWEN  =     -8462.35904785
  -Hartree energ DENC   =     -1828.63512329
  -exchange      EXHF   =         0.00000000
  -V(xc)+E(xc)   XCENC  =       513.00727025
  PAW double counting   =      7817.12183272    -7712.97334390
  entropy T*S    EENTRO =        -0.00000000
  eigenvalues    EBANDS =     -1330.51699889
  atomic energy  EATOM  =     10184.52279430
  Solvation  Ediel_sol  =         0.00000000
  ---------------------------------------------------
  free energy    TOTEN  =       -22.99225969 eV

  energy without entropy =      -22.99225969  energy(sigma->0) =      -22.99225969


--------------------------------------------------------------------------------------------------------




----------------------------------------- Iteration    1(   3)  ---------------------------------------


     EDDAV:  cpu time    8.3320: real time    8.3359
       DOS:  cpu time    0.0000: real time    0.0003
    --------------------------------------------
      LOOP:  cpu time    8.3320: real time    8.3367

 eigenvalue-minimisations  :  3432
 total energy-change (2. order) :-0.8895008E+02  (-0.8844255E+02)
 number of electron     128.0000000 magnetization 
 augmentation part      128.0000000 magnetization 

 Free energy of the ion-electron system (eV)
  ---------------------------------------------------
  alpha Z        PSCENC =       796.84035699
  Ewald energy   TEWEN  =     -8462.35904785
  -Hartree energ DENC   =     -1828.63512329
  -exchange      EXHF   =         0.00000000
  -V(xc)+E(xc)   XCENC  =       513.00727025
  PAW double counting   =      7817.12183272    -7712.97334390
  entropy T*S    EENTRO =        -0.00000000
  eigenvalues    EBANDS =     -1419.46708365
  atomic energy  EATOM  =     10184.52279430
  Solvation  Ediel_sol  =         0.00000000
  ---------------------------------------------------
  free energy    TOTEN  =      -111.94234444 eV

  energy without entropy =     -111.94234444  energy(sigma->0) =     -111.94234444


--------------------------------------------------------------------------------------------------------




----------------------------------------- Iteration    1(   4)  ---------------------------------------


     EDDAV:  cpu time    9.4800: real time    9.4832
       DOS:  cpu time    0.0000: real time    0.0003
    --------------------------------------------
      LOOP:  cpu time    9.4800: real time    9.4840

 eigenvalue-minimisations  :  4080
 total energy-change (2. order) :-0.4851234E+01  (-0.4842778E+01)
 number of electron     128.0000000 magnetization 
 augmentation part      128.0000000 magnetization 

 Free energy of the ion-electron system (eV)
  ---------------------------------------------------
  alpha Z        PSCENC =       796.84035699
  Ewald energy   TEWEN  =     -8462.35904785
  -Hartree energ DENC   =     -1828.63512329
  -exchange      EXHF   =         0.00000000
  -V(xc)+E(xc)   XCENC  =       513.00727025
  PAW double counting   =      7817.12183272    -7712.97334390
  entropy T*S    EENTRO =        -0.00000000
  eigenvalues    EBANDS =     -1424.31831812
  atomic energy  EATOM  =     10184.52279430
  Solvation  Ediel_sol  =         0.00000000
  ---------------------------------------------------
  free energy    TOTEN  =      -116.79357891 eV

  energy without entropy =     -116.79357891  energy(sigma->0) =     -116.79357891


--------------------------------------------------------------------------------------------------------




----------------------------------------- Iteration    1(   5)  ---------------------------------------


     EDDAV:  cpu time    8.8400: real time    8.8440
       DOS:  cpu time    0.0000: real time    0.0003
    CHARGE:  cpu time    0.8520: real time    0.8528
    MIXING:  cpu time    0.0040: real time    0.0047
    --------------------------------------------
      LOOP:  cpu time    9.6960: real time    9.7023

 eigenvalue-minimisations  :  3716
 total energy-change (2. order) :-0.1666489E+00  (-0.1666178E+00)
 number of electron     128.0000001 magnetization 
 augmentation part       11.4576367 magnetization 

 Broyden mixing:
  rms(total) = 0.48635E+01    rms(broyden)= 0.48635E+01
  rms(prec ) = 0.62061E+01
  weight for this iteration     100.00

 Free energy of the ion-electron system (eV)
  ---------------------------------------------------
  alpha Z        PSCENC =       796.84035699
  Ewald energy   TEWEN  =     -8462.35904785
  -Hartree energ DENC   =     -1828.63512329
  -exchange      EXHF   =         0.00000000
  -V(xc)+E(xc)   XCENC  =       513.00727025
  PAW double counting   =      7817.12183272    -7712.97334390
  entropy T*S    EENTRO =        -0.00000000
  eigenvalues    EBANDS =     -1424.48496703
  atomic energy  EATOM  =     10184.52279430
  Solvation  Ediel_sol  =         0.00000000
  ---------------------------------------------------
  free energy    TOTEN  =      -116.96022783 eV

  energy without entropy =     -116.96022783  energy(sigma->0) =     -116.96022783


--------------------------------------------------------------------------------------------------------




----------------------------------------- Iteration    1(   6)  ---------------------------------------


    POTLOK:  cpu time    0.1520: real time    0.1499
    SETDIJ:  cpu time    0.5240: real time    0.5251
     EDDAV:  cpu time    7.8440: real time    7.8482
       DOS:  cpu time    0.0000: real time    0.0003
    CHARGE:  cpu time    0.9000: real time    0.9000
    MIXING:  cpu time    0.0080: real time    0.0052
    --------------------------------------------
      LOOP:  cpu time    9.4280: real time    9.4294

 eigenvalue-minimisations  :  3156
 total energy-change (2. order) : 0.1522074E+02  (-0.1059956E+02)
 number of electron     128.0000001 magnetization 
 augmentation part        9.5948371 magnetization 

 Broyden mixing:
  rms(total) = 0.64734E+01    rms(broyden)= 0.64734E+01
  rms(prec ) = 0.65704E+01
  weight for this iteration     100.00

 eigenvalues of (default mixing * dielectric matrix)
  average eigenvalue GAMMA=   0.1792
  0.1792

 Free energy of the ion-electron system (eV)
  ---------------------------------------------------
  alpha Z        PSCENC =       796.84035699
  Ewald energy   TEWEN  =     -8462.35904785
  -Hartree energ DENC   =     -1955.28035422
  -exchange      EXHF   =         0.00000000
  -V(xc)+E(xc)   XCENC  =       521.97701351
  PAW double counting   =     10887.40649477   -10807.00713513
  entropy T*S    EENTRO =        -0.00000000
  eigenvalues    EBANDS =     -1267.83961263
  atomic energy  EATOM  =     10184.52279430
  Solvation  Ediel_sol  =         0.00000000
  ---------------------------------------------------
  free energy    TOTEN  =      -101.73949027 eV

  energy without entropy =     -101.73949027  energy(sigma->0) =     -101.73949027


--------------------------------------------------------------------------------------------------------




----------------------------------------- Iteration    1(   7)  ---------------------------------------


    POTLOK:  cpu time    0.1480: real time    0.1481
    SETDIJ:  cpu time    0.5240: real time    0.5270
     EDDAV:  cpu time    8.3800: real time    8.3811
       DOS:  cpu time    0.0000: real time    0.0004
    CHARGE:  cpu time    0.8520: real time    0.8520
    MIXING:  cpu time    0.0040: real time    0.0049
    --------------------------------------------
      LOOP:  cpu time    9.9080: real time    9.9140

 eigenvalue-minimisations  :  3456
 total energy-change (2. order) : 0.4860260E-01  (-0.8482278E+00)
 number of electron     128.0000001 magnetization 
 augmentation part        9.2003074 magnetization 

 Broyden mixing:
  rms(total) = 0.43534E+01    rms(broyden)= 0.43534E+01
  rms(prec ) = 0.44255E+01
  weight for this iteration     100.00

 eigenvalues of (default mixing * dielectric matrix)
  average eigenvalue GAMMA=   1.1512
  1.0169  1.2855

 Free energy of the ion-electron system (eV)
  ---------------------------------------------------
  alpha Z        PSCENC =       796.84035699
  Ewald energy   TEWEN  =     -8462.35904785
  -Hartree energ DENC   =     -1936.93165557
  -exchange      EXHF   =         0.00000000
  -V(xc)+E(xc)   XCENC  =       520.68286380
  PAW double counting   =     12385.60581372   -12309.13708777
  entropy T*S    EENTRO =        -0.00000000
  eigenvalues    EBANDS =     -1280.91492527
  atomic energy  EATOM  =     10184.52279430
  Solvation  Ediel_sol  =         0.00000000
  ---------------------------------------------------
  free energy    TOTEN  =      -101.69088767 eV

  energy without entropy =     -101.69088767  energy(sigma->0) =     -101.69088767


--------------------------------------------------------------------------------------------------------




----------------------------------------- Iteration    1(   8)  ---------------------------------------


    POTLOK:  cpu time    0.1480: real time    0.1472
    SETDIJ:  cpu time    0.5200: real time    0.5226
     EDDAV:  cpu time    7.6920: real time    7.6946
       DOS:  cpu time    0.0000: real time    0.0004
    CHARGE:  cpu time    0.8520: real time    0.8529
    MIXING:  cpu time    0.0080: real time    0.0051
    --------------------------------------------
      LOOP:  cpu time    9.2200: real time    9.2234

 eigenvalue-minimisations  :  3072
 total energy-change (2. order) : 0.3845586E+00  (-0.4742366E+00)
 number of electron     128.0000001 magnetization 
 augmentation part        9.4754922 magnetization 

 Broyden mixing:
  rms(total) = 0.12249E+01    rms(broyden)= 0.12249E+01
  rms(prec ) = 0.13121E+01
  weight for this iteration     100.00

 eigenvalues of (default mixing * dielectric matrix)
  average eigenvalue GAMMA=   1.3659
  2.5185  0.7897  0.7897

 Free energy of the ion-electron system (eV)
  ---------------------------------------------------
  alpha Z        PSCENC =       796.84035699
  Ewald energy   TEWEN  =     -8462.35904785
  -Hartree energ DENC   =     -1913.09758467
  -exchange      EXHF   =         0.00000000
  -V(xc)+E(xc)   XCENC  =       518.90628230
  PAW double counting   =     17039.42558912   -16968.58760433
  entropy T*S    EENTRO =        -0.00000000
  eigenvalues    EBANDS =     -1296.95711490
  atomic energy  EATOM  =     10184.52279430
  Solvation  Ediel_sol  =         0.00000000
  ---------------------------------------------------
  free energy    TOTEN  =      -101.30632905 eV

  energy without entropy =     -101.30632905  energy(sigma->0) =     -101.30632905


--------------------------------------------------------------------------------------------------------




----------------------------------------- Iteration    1(   9)  ---------------------------------------


    POTLOK:  cpu time    0.1480: real time    0.1494
    SETDIJ:  cpu time    0.5240: real time    0.5249
     EDDAV:  cpu time    8.1920: real time    8.1961
       DOS:  cpu time    0.0040: real time    0.0003
    CHARGE:  cpu time    0.8480: real time    0.8516
    MIXING:  cpu time    0.0080: real time    0.0051
    --------------------------------------------
      LOOP:  cpu time    9.7240: real time    9.7279

 eigenvalue-minimisations  :  3352
 total energy-change (2. order) : 0.1601995E+00  (-0.7671351E-01)
 number of electron     128.0000001 magnetization 
 augmentation part        9.3055524 magnetization 

 Broyden mixing:
  rms(total) = 0.33977E+00    rms(broyden)= 0.33977E+00
  rms(prec ) = 0.34918E+00
  weight for this iteration     100.00

 eigenvalues of (default mixing * dielectric matrix)
  average eigenvalue GAMMA=   1.4091
  2.3699  0.8438  0.8438  1.5788

 Free energy of the ion-electron system (eV)
  ---------------------------------------------------
  alpha Z        PSCENC =       796.84035699
  Ewald energy   TEWEN  =     -8462.35904785
  -Hartree energ DENC   =     -1922.34293819
  -exchange      EXHF   =         0.00000000
  -V(xc)+E(xc)   XCENC  =       519.56747865
  PAW double counting   =     19939.31658763   -19874.63471948
  entropy T*S    EENTRO =        -0.00000000
  eigenvalues    EBANDS =     -1282.05664157
  atomic energy  EATOM  =     10184.52279430
  Solvation  Ediel_sol  =         0.00000000
  ---------------------------------------------------
  free energy    TOTEN  =      -101.14612953 eV

  energy without entropy =     -101.14612953  energy(sigma->0) =     -101.14612953


--------------------------------------------------------------------------------------------------------




----------------------------------------- Iteration    1(  10)  ---------------------------------------


    POTLOK:  cpu time    0.1480: real time    0.1490
    SETDIJ:  cpu time    0.5240: real time    0.5232
     EDDAV:  cpu time    8.5320: real time    8.5379
       DOS:  cpu time    0.0000: real time    0.0003
    CHARGE:  cpu time    0.8520: real time    0.8519
    MIXING:  cpu time    0.0080: real time    0.0052
    --------------------------------------------
      LOOP:  cpu time   10.0640: real time   10.0681

 eigenvalue-minimisations  :  3544
 total energy-change (2. order) :-0.8797378E-02  (-0.6378934E-02)
 number of electron     128.0000001 magnetization 
 augmentation part        9.2860747 magnetization 

 Broyden mixing:
  rms(total) = 0.14724E+00    rms(broyden)= 0.14724E+00
  rms(prec ) = 0.15870E+00
  weight for this iteration     100.00

 eigenvalues of (default mixing * dielectric matrix)
  average eigenvalue GAMMA=   1.4935
  2.4202  2.4202  0.8260  0.8260  0.9749

 Free energy of the ion-electron system (eV)
  ---------------------------------------------------
  alpha Z        PSCENC =       796.84035699
  Ewald energy   TEWEN  =     -8462.35904785
  -Hartree energ DENC   =     -1920.15328862
  -exchange      EXHF   =         0.00000000
  -V(xc)+E(xc)   XCENC  =       519.42960414
  PAW double counting   =     19999.91076916   -19935.74192297
  entropy T*S    EENTRO =        -0.00000000
  eigenvalues    EBANDS =     -1283.60419205
  atomic energy  EATOM  =     10184.52279430
  Solvation  Ediel_sol  =         0.00000000
  ---------------------------------------------------
  free energy    TOTEN  =      -101.15492691 eV

  energy without entropy =     -101.15492691  energy(sigma->0) =     -101.15492691


--------------------------------------------------------------------------------------------------------




----------------------------------------- Iteration    1(  11)  ---------------------------------------


    POTLOK:  cpu time    0.1480: real time    0.1482
    SETDIJ:  cpu time    0.5280: real time    0.5289
     EDDAV:  cpu time    9.4000: real time    9.4061
       DOS:  cpu time    0.0000: real time    0.0004
    CHARGE:  cpu time    0.8520: real time    0.8498
    MIXING:  cpu time    0.0040: real time    0.0056
    --------------------------------------------
      LOOP:  cpu time   10.9320: real time   10.9396

 eigenvalue-minimisations  :  4032
 total energy-change (2. order) : 0.1367684E-02  (-0.1289674E-02)
 number of electron     128.0000001 magnetization 
 augmentation part        9.2502254 magnetization 

 Broyden mixing:
  rms(total) = 0.12990E-01    rms(broyden)= 0.12990E-01
  rms(prec ) = 0.17272E-01
  weight for this iteration     100.00

 eigenvalues of (default mixing * dielectric matrix)
  average eigenvalue GAMMA=   1.5975
  3.0632  2.5319  1.3896  0.8253  0.8253  0.9498

 Free energy of the ion-electron system (eV)
  ---------------------------------------------------
  alpha Z        PSCENC =       796.84035699
  Ewald energy   TEWEN  =     -8462.35904785
  -Hartree energ DENC   =     -1920.32772877
  -exchange      EXHF   =         0.00000000
  -V(xc)+E(xc)   XCENC  =       519.45486080
  PAW double counting   =     20184.97837872   -20121.64583281
  entropy T*S    EENTRO =        -0.00000000
  eigenvalues    EBANDS =     -1282.61734059
  atomic energy  EATOM  =     10184.52279430
  Solvation  Ediel_sol  =         0.00000000
  ---------------------------------------------------
  free energy    TOTEN  =      -101.15355922 eV

  energy without entropy =     -101.15355922  energy(sigma->0) =     -101.15355922


--------------------------------------------------------------------------------------------------------




----------------------------------------- Iteration    1(  12)  ---------------------------------------


    POTLOK:  cpu time    0.1480: real time    0.1481
    SETDIJ:  cpu time    0.5280: real time    0.5268
     EDDAV:  cpu time    8.8360: real time    8.8419
       DOS:  cpu time    0.0040: real time    0.0004
    CHARGE:  cpu time    0.9960: real time    0.9973
    MIXING:  cpu time    0.0040: real time    0.0054
    --------------------------------------------
      LOOP:  cpu time   10.5160: real time   10.5204

 eigenvalue-minimisations  :  3720
 total energy-change (2. order) :-0.1522310E-03  (-0.3575421E-03)
 number of electron     128.0000001 magnetization 
 augmentation part        9.2347634 magnetization 

 Broyden mixing:
  rms(total) = 0.13807E-01    rms(broyden)= 0.13807E-01
  rms(prec ) = 0.17477E-01
  weight for this iteration     100.00

 eigenvalues of (default mixing * dielectric matrix)
  average eigenvalue GAMMA=   1.5946
  3.0150  2.5405  1.9920  0.8190  0.8190  1.0643  0.9124

 Free energy of the ion-electron system (eV)
  ---------------------------------------------------
  alpha Z        PSCENC =       796.84035699
  Ewald energy   TEWEN  =     -8462.35904785
  -Hartree energ DENC   =     -1920.79410883
  -exchange      EXHF   =         0.00000000
  -V(xc)+E(xc)   XCENC  =       519.48915483
  PAW double counting   =     20195.85032906   -20132.64014972
  entropy T*S    EENTRO =        -0.00000000
  eigenvalues    EBANDS =     -1282.06304024
  atomic energy  EATOM  =     10184.52279430
  Solvation  Ediel_sol  =         0.00000000
  ---------------------------------------------------
  free energy    TOTEN  =      -101.15371146 eV

  energy without entropy =     -101.15371146  energy(sigma->0) =     -101.15371146


--------------------------------------------------------------------------------------------------------




----------------------------------------- Iteration    1(  13)  ---------------------------------------


    POTLOK:  cpu time    0.1480: real time    0.1491
    SETDIJ:  cpu time    0.5280: real time    0.5275
     EDDAV:  cpu time    8.0240: real time    8.0247
       DOS:  cpu time    0.0000: real time    0.0004
    CHARGE:  cpu time    0.8480: real time    0.8511
    MIXING:  cpu time    0.0080: real time    0.0056
    --------------------------------------------
      LOOP:  cpu time    9.5560: real time    9.5589

 eigenvalue-minimisations  :  3260
 total energy-change (2. order) : 0.7255780E-04  (-0.5462585E-04)
 number of electron     128.0000001 magnetization 
 augmentation part        9.2378073 magnetization 

 Broyden mixing:
  rms(total) = 0.85393E-02    rms(broyden)= 0.85393E-02
  rms(prec ) = 0.88228E-02
  weight for this iteration     100.00

 eigenvalues of (default mixing * dielectric matrix)
  average eigenvalue GAMMA=   1.4790
  2.8860  2.1968  2.1968  0.8184  0.8184  1.1561  0.9259  0.8338

 Free energy of the ion-electron system (eV)
  ---------------------------------------------------
  alpha Z        PSCENC =       796.84035699
  Ewald energy   TEWEN  =     -8462.35904785
  -Hartree energ DENC   =     -1920.78681769
  -exchange      EXHF   =         0.00000000
  -V(xc)+E(xc)   XCENC  =       519.48641567
  PAW double counting   =     20174.88661567   -20111.54711495
  entropy T*S    EENTRO =        -0.00000000
  eigenvalues    EBANDS =     -1282.19684104
  atomic energy  EATOM  =     10184.52279430
  Solvation  Ediel_sol  =         0.00000000
  ---------------------------------------------------
  free energy    TOTEN  =      -101.15363890 eV

  energy without entropy =     -101.15363890  energy(sigma->0) =     -101.15363890


--------------------------------------------------------------------------------------------------------




----------------------------------------- Iteration    1(  14)  ---------------------------------------


    POTLOK:  cpu time    0.1480: real time    0.1488
    SETDIJ:  cpu time    0.5280: real time    0.5269
     EDDAV:  cpu time    8.8080: real time    8.8121
       DOS:  cpu time    0.0000: real time    0.0003
    CHARGE:  cpu time    0.8520: real time    0.8524
    MIXING:  cpu time    0.0080: real time    0.0088
    --------------------------------------------
      LOOP:  cpu time   10.3440: real time   10.3500

 eigenvalue-minimisations  :  3704
 total energy-change (2. order) :-0.5757302E-06  (-0.3412811E-05)
 number of electron     128.0000001 magnetization 
 augmentation part        9.2385336 magnetization 

 Broyden mixing:
  rms(total) = 0.39469E-02    rms(broyden)= 0.39469E-02
  rms(prec ) = 0.41694E-02
  weight for this iteration     100.00

 eigenvalues of (default mixing * dielectric matrix)
  average eigenvalue GAMMA=   1.4496
  2.8910  2.1990  2.1990  1.3095  0.8217  0.8217  0.9626  0.9211  0.9211

 Free energy of the ion-electron system (eV)
  ---------------------------------------------------
  alpha Z        PSCENC =       796.84035699
  Ewald energy   TEWEN  =     -8462.35904785
  -Hartree energ DENC   =     -1920.82492078
  -exchange      EXHF   =         0.00000000
  -V(xc)+E(xc)   XCENC  =       519.48851528
  PAW double counting   =     20176.66182243   -20113.30487049
  entropy T*S    EENTRO =        -0.00000000
  eigenvalues    EBANDS =     -1282.17828936
  atomic energy  EATOM  =     10184.52279430
  Solvation  Ediel_sol  =         0.00000000
  ---------------------------------------------------
  free energy    TOTEN  =      -101.15363947 eV

  energy without entropy =     -101.15363947  energy(sigma->0) =     -101.15363947


--------------------------------------------------------------------------------------------------------




----------------------------------------- Iteration    1(  15)  ---------------------------------------


    POTLOK:  cpu time    0.1480: real time    0.1470
    SETDIJ:  cpu time    0.5240: real time    0.5255
     EDDAV:  cpu time    8.9320: real time    8.9347
       DOS:  cpu time    0.0000: real time    0.0004
    CHARGE:  cpu time    0.8520: real time    0.8530
    MIXING:  cpu time    0.0080: real time    0.0090
    --------------------------------------------
      LOOP:  cpu time   10.4680: real time   10.4702

 eigenvalue-minimisations  :  3768
 total energy-change (2. order) : 0.5610527E-06  (-0.2625096E-06)
 number of electron     128.0000001 magnetization 
 augmentation part        9.2390702 magnetization 

 Broyden mixing:
  rms(total) = 0.22346E-02    rms(broyden)= 0.22346E-02
  rms(prec ) = 0.23216E-02
  weight for this iteration     100.00

 eigenvalues of (default mixing * dielectric matrix)
  average eigenvalue GAMMA=   1.5225
  2.8929  2.3299  2.3299  2.2673  1.1519  0.8179  0.8179  0.9319  0.8427  0.8427

 Free energy of the ion-electron system (eV)
  ---------------------------------------------------
  alpha Z        PSCENC =       796.84035699
  Ewald energy   TEWEN  =     -8462.35904785
  -Hartree energ DENC   =     -1920.84062850
  -exchange      EXHF   =         0.00000000
  -V(xc)+E(xc)   XCENC  =       519.48921707
  PAW double counting   =     20174.59805481   -20111.22205414
  entropy T*S    EENTRO =        -0.00000000
  eigenvalues    EBANDS =     -1282.18233160
  atomic energy  EATOM  =     10184.52279430
  Solvation  Ediel_sol  =         0.00000000
  ---------------------------------------------------
  free energy    TOTEN  =      -101.15363891 eV

  energy without entropy =     -101.15363891  energy(sigma->0) =     -101.15363891


--------------------------------------------------------------------------------------------------------




----------------------------------------- Iteration    1(  16)  ---------------------------------------


    POTLOK:  cpu time    0.1480: real time    0.1479
    SETDIJ:  cpu time    0.5240: real time    0.5254
     EDDAV:  cpu time    9.2680: real time    9.2713
       DOS:  cpu time    0.0000: real time    0.0005
    CHARGE:  cpu time    0.8480: real time    0.8501
    MIXING:  cpu time    0.0080: real time    0.0061
    --------------------------------------------
      LOOP:  cpu time   10.7960: real time   10.8020

 eigenvalue-minimisations  :  3952
 total energy-change (2. order) : 0.7599374E-07  (-0.6495644E-07)
 number of electron     128.0000001 magnetization 
 augmentation part        9.2393858 magnetization 

 Broyden mixing:
  rms(total) = 0.46537E-03    rms(broyden)= 0.46520E-03
  rms(prec ) = 0.57037E-03
  weight for this iteration     100.00

 eigenvalues of (default mixing * dielectric matrix)
  average eigenvalue GAMMA=   1.5149
  2.9336  2.7054  2.2259  2.2259  1.3877  0.9600  0.9131  0.8217  0.8217  0.8344
  0.8344

 Free energy of the ion-electron system (eV)
  ---------------------------------------------------
  alpha Z        PSCENC =       796.84035699
  Ewald energy   TEWEN  =     -8462.35904785
  -Hartree energ DENC   =     -1920.85696284
  -exchange      EXHF   =         0.00000000
  -V(xc)+E(xc)   XCENC  =       519.49007707
  PAW double counting   =     20173.12332678   -20109.73495042
  entropy T*S    EENTRO =        -0.00000000
  eigenvalues    EBANDS =     -1282.17923287
  atomic energy  EATOM  =     10184.52279430
  Solvation  Ediel_sol  =         0.00000000
  ---------------------------------------------------
  free energy    TOTEN  =      -101.15363884 eV

  energy without entropy =     -101.15363884  energy(sigma->0) =     -101.15363884


--------------------------------------------------------------------------------------------------------




----------------------------------------- Iteration    1(  17)  ---------------------------------------


    POTLOK:  cpu time    0.1480: real time    0.1468
    SETDIJ:  cpu time    0.5240: real time    0.5269
     EDDAV:  cpu time    7.8120: real time    7.8165
       DOS:  cpu time    0.0040: real time    0.0005
    CHARGE:  cpu time    0.8480: real time    0.8514
    MIXING:  cpu time    0.0080: real time    0.0068
    --------------------------------------------
      LOOP:  cpu time    9.3440: real time    9.3495

 eigenvalue-minimisations  :  3136
 total energy-change (2. order) :-0.4672438E-07  (-0.3953526E-07)
 number of electron     128.0000001 magnetization 
 augmentation part        9.2395544 magnetization 

 Broyden mixing:
  rms(total) = 0.89896E-04    rms(broyden)= 0.89008E-04
  rms(prec ) = 0.10158E-03
  weight for this iteration     100.00

 eigenvalues of (default mixing * dielectric matrix)
  average eigenvalue GAMMA=   1.4664
  2.8726  2.6576  2.3259  2.3259  1.5036  0.9720  0.8351  0.8351  0.8216  0.8216
  0.8130  0.8130

 Free energy of the ion-electron system (eV)
  ---------------------------------------------------
  alpha Z        PSCENC =       796.84035699
  Ewald energy   TEWEN  =     -8462.35904785
  -Hartree energ DENC   =     -1920.85683831
  -exchange      EXHF   =         0.00000000
  -V(xc)+E(xc)   XCENC  =       519.48998883
  PAW double counting   =     20172.02453326   -20108.63163687
  entropy T*S    EENTRO =        -0.00000000
  eigenvalues    EBANDS =     -1282.18378924
  atomic energy  EATOM  =     10184.52279430
  Solvation  Ediel_sol  =         0.00000000
  ---------------------------------------------------
  free energy    TOTEN  =      -101.15363888 eV

  energy without entropy =     -101.15363888  energy(sigma->0) =     -101.15363888


--------------------------------------------------------------------------------------------------------




----------------------------------------- Iteration    1(  18)  ---------------------------------------


    POTLOK:  cpu time    0.1480: real time    0.1487
    SETDIJ:  cpu time    0.5280: real time    0.5279
     EDDAV:  cpu time    6.9320: real time    6.9338
       DOS:  cpu time    0.0000: real time    0.0005
    CHARGE:  cpu time    0.8520: real time    0.8511
    MIXING:  cpu time    0.0040: real time    0.0064
    --------------------------------------------
      LOOP:  cpu time    8.4640: real time    8.4690

 eigenvalue-minimisations  :  2632
 total energy-change (2. order) : 0.8122697E-07  (-0.5800690E-08)
 number of electron     128.0000001 magnetization 
 augmentation part        9.2395937 magnetization 

 Broyden mixing:
  rms(total) = 0.36689E-04    rms(broyden)= 0.34464E-04
  rms(prec ) = 0.50454E-04
  weight for this iteration     100.00

 eigenvalues of (default mixing * dielectric matrix)
  average eigenvalue GAMMA=   1.4836
  2.8877  2.6322  2.4389  2.4389  1.5988  1.0665  1.0665  1.0035  0.8545  0.8184
  0.8184  0.8316  0.8316

 Free energy of the ion-electron system (eV)
  ---------------------------------------------------
  alpha Z        PSCENC =       796.84035699
  Ewald energy   TEWEN  =     -8462.35904785
  -Hartree energ DENC   =     -1920.85588747
  -exchange      EXHF   =         0.00000000
  -V(xc)+E(xc)   XCENC  =       519.48993846
  PAW double counting   =     20172.16792654   -20108.77626858
  entropy T*S    EENTRO =        -0.00000000
  eigenvalues    EBANDS =     -1282.18345119
  atomic energy  EATOM  =     10184.52279430
  Solvation  Ediel_sol  =         0.00000000
  ---------------------------------------------------
  free energy    TOTEN  =      -101.15363880 eV

  energy without entropy =     -101.15363880  energy(sigma->0) =     -101.15363880


--------------------------------------------------------------------------------------------------------




----------------------------------------- Iteration    1(  19)  ---------------------------------------


    POTLOK:  cpu time    0.1480: real time    0.1484
    SETDIJ:  cpu time    0.5240: real time    0.5245
     EDDAV:  cpu time    5.4920: real time    5.4962
       DOS:  cpu time    0.0000: real time    0.0005
    CHARGE:  cpu time    0.8480: real time    0.8464
    MIXING:  cpu time    0.0120: real time    0.0117
    --------------------------------------------
      LOOP:  cpu time    7.0280: real time    7.0283

 eigenvalue-minimisations  :  1816
 total energy-change (2. order) : 0.3205423E-07  (-0.4731081E-09)
 number of electron     128.0000001 magnetization 
 augmentation part        9.2396038 magnetization 

 Broyden mixing:
  rms(total) = 0.37348E-04    rms(broyden)= 0.35165E-04
  rms(prec ) = 0.39423E-04
  weight for this iteration     100.00

 eigenvalues of (default mixing * dielectric matrix)
  average eigenvalue GAMMA=   1.4930
  2.8555  2.6016  2.6016  2.5625  1.7720  1.4590  0.9833  0.9833  0.8942  0.8942
  0.8203  0.8203  0.8274  0.8274

 Free energy of the ion-electron system (eV)
  ---------------------------------------------------
  alpha Z        PSCENC =       796.84035699
  Ewald energy   TEWEN  =     -8462.35904785
  -Hartree energ DENC   =     -1920.85548753
  -exchange      EXHF   =         0.00000000
  -V(xc)+E(xc)   XCENC  =       519.48991281
  PAW double counting   =     20172.21246454   -20108.82111763
  entropy T*S    EENTRO =        -0.00000000
  eigenvalues    EBANDS =     -1282.18351440
  atomic energy  EATOM  =     10184.52279430
  Solvation  Ediel_sol  =         0.00000000
  ---------------------------------------------------
  free energy    TOTEN  =      -101.15363877 eV

  energy without entropy =     -101.15363877  energy(sigma->0) =     -101.15363877


--------------------------------------------------------------------------------------------------------




----------------------------------------- Iteration    1(  20)  ---------------------------------------


    POTLOK:  cpu time    0.1480: real time    0.1486
    SETDIJ:  cpu time    0.5200: real time    0.5209
     EDDAV:  cpu time    5.3840: real time    5.3844
       DOS:  cpu time    0.0000: real time    0.0005
    CHARGE:  cpu time    0.8560: real time    0.8568
    MIXING:  cpu time    0.0080: real time    0.0066
    --------------------------------------------
      LOOP:  cpu time    6.9160: real time    6.9185

 eigenvalue-minimisations  :  1752
 total energy-change (2. order) : 0.1725130E-07  (-0.2294611E-09)
 number of electron     128.0000001 magnetization 
 augmentation part        9.2396098 magnetization 

 Broyden mixing:
  rms(total) = 0.16079E-04    rms(broyden)= 0.10012E-04
  rms(prec ) = 0.13385E-04
  weight for this iteration     100.00
  WARNING: grid for Broyden might be to small

 eigenvalues of (default mixing * dielectric matrix)
  average eigenvalue GAMMA=   1.4724
  2.9935  2.5187  2.5113  2.2960  2.2960  1.6499  0.8993  0.8993  0.8197  0.8197
  0.9614  0.9614  0.8292  0.8292  0.8016

 Free energy of the ion-electron system (eV)
  ---------------------------------------------------
  alpha Z        PSCENC =       796.84035699
  Ewald energy   TEWEN  =     -8462.35904785
  -Hartree energ DENC   =     -1920.85549720
  -exchange      EXHF   =         0.00000000
  -V(xc)+E(xc)   XCENC  =       519.48991242
  PAW double counting   =     20172.21156937   -20108.82025822
  entropy T*S    EENTRO =        -0.00000000
  eigenvalues    EBANDS =     -1282.18346856
  atomic energy  EATOM  =     10184.52279430
  Solvation  Ediel_sol  =         0.00000000
  ---------------------------------------------------
  free energy    TOTEN  =      -101.15363875 eV

  energy without entropy =     -101.15363875  energy(sigma->0) =     -101.15363875


--------------------------------------------------------------------------------------------------------




----------------------------------------- Iteration    1(  21)  ---------------------------------------


    POTLOK:  cpu time    0.1480: real time    0.1476
    SETDIJ:  cpu time    0.5240: real time    0.5259
     EDDAV:  cpu time    5.2960: real time    5.2993
       DOS:  cpu time    0.0000: real time    0.0003
    --------------------------------------------
      LOOP:  cpu time    5.9680: real time    5.9736

 eigenvalue-minimisations  :  1704
 total energy-change (2. order) : 0.5846232E-08  (-0.1360259E-09)
 number of electron     128.0000001 magnetization 
 augmentation part        9.2396098 magnetization 

 Free energy of the ion-electron system (eV)
  ---------------------------------------------------
  alpha Z        PSCENC =       796.84035699
  Ewald energy   TEWEN  =     -8462.35904785
  -Hartree energ DENC   =     -1920.85555176
  -exchange      EXHF   =         0.00000000
  -V(xc)+E(xc)   XCENC  =       519.48991459
  PAW double counting   =     20172.20779251   -20108.81644050
  entropy T*S    EENTRO =        -0.00000000
  eigenvalues    EBANDS =     -1282.18345702
  atomic energy  EATOM  =     10184.52279430
  Solvation  Ediel_sol  =         0.00000000
  ---------------------------------------------------
  free energy    TOTEN  =      -101.15363875 eV

  energy without entropy =     -101.15363875  energy(sigma->0) =     -101.15363875


--------------------------------------------------------------------------------------------------------




 average (electrostatic) potential at core
  the test charge radii are     1.1929  0.7215
  (the norm of the test charge is              1.0000)
       1 -36.2362       2 -36.2363       3 -36.2457       4 -36.2267       5 -36.2457
       6 -36.2267       7 -36.2363       8 -36.2362       9 -70.7723      10 -70.7723
      11 -70.7723      12 -70.7723      13 -70.7723      14 -70.7723      15 -70.7723
      16 -70.7723
 
 
 
 E-fermi :   1.6593     XC(G=0): -10.2984     alpha+bet :-12.1858


 k-point     1 :       0.0000    0.0000    0.0000
  band No.  band energies     occupation 
      1     -30.7125      2.00000
      2     -30.5690      2.00000
      3     -30.5678      2.00000
      4     -30.5672      2.00000
      5     -30.5672      2.00000
      6     -30.5253      2.00000
      7     -30.5244      2.00000
      8     -30.5235      2.00000
      9     -15.0340      2.00000
     10     -15.0339      2.00000
     11     -15.0339      2.00000
     12     -15.0339      2.00000
     13     -13.4932      2.00000
     14     -13.4669      2.00000
     15     -13.4663      2.00000
     16     -13.4663      2.00000
     17     -13.3633      2.00000
     18     -13.3633      2.00000
     19     -13.3627      2.00000
     20     -12.7430      2.00000
     21     -12.7430      2.00000
     22     -12.7430      2.00000
     23     -12.7429      2.00000
     24     -12.7429      2.00000
     25     -12.7428      2.00000
     26     -12.4451      2.00000
     27     -12.4451      2.00000
     28     -12.4449      2.00000
     29     -12.4448      2.00000
     30     -12.4448      2.00000
     31     -12.4448      2.00000
     32     -12.4447      2.00000
     33     -12.4447      2.00000
     34     -12.3601      2.00000
     35     -12.3600      2.00000
     36     -12.3598      2.00000
     37     -11.1686      2.00000
     38     -11.1686      2.00000
     39     -11.1686      2.00000
     40     -11.1685      2.00000
     41      -0.7257      2.00000
     42      -0.7256      2.00000
     43      -0.7256      2.00000
     44      -0.7256      2.00000
     45       0.3450      2.00000
     46       0.3450      2.00000
     47       0.3450      2.00000
     48       0.3450      2.00000
     49       0.3450      2.00000
     50       0.3450      2.00000
     51       0.3450      2.00000
     52       0.3450      2.00000
     53       1.0786      2.00000
     54       1.0786      2.00000
     55       1.0786      2.00000
     56       1.4231      2.00000
     57       1.4231      2.00000
     58       1.4231      2.00000
     59       1.4231      2.00000
     60       1.4231      2.00000
     61       1.4231      2.00000
     62       1.5070      2.00000
     63       1.5070      2.00000
     64       1.5070      2.00000
     65       4.6622      0.00000
     66       4.6622      0.00000
     67       4.6622      0.00000
     68       5.3649      0.00000
     69       7.6811      0.00000
     70       7.6811      0.00000
     71       7.6812      0.00000
     72       8.0180      0.00000
     73       8.0181      0.00000
     74       8.0183      0.00000
     75       8.0183      0.00000
     76       9.3062      0.00000

 k-point     2 :       0.2500    0.0000    0.0000
  band No.  band energies     occupation 
      1     -30.6917      2.00000
      2     -30.5890      2.00000
      3     -30.5636      2.00000
      4     -30.5616      2.00000
      5     -30.5611      2.00000
      6     -30.5315      2.00000
      7     -30.5305      2.00000
      8     -30.5290      2.00000
      9     -14.9022      2.00000
     10     -14.9021      2.00000
     11     -14.9020      2.00000
     12     -14.8750      2.00000
     13     -13.9834      2.00000
     14     -13.9826      2.00000
     15     -13.9819      2.00000
     16     -13.8598      2.00000
     17     -13.1011      2.00000
     18     -13.0999      2.00000
     19     -13.0985      2.00000
     20     -12.7011      2.00000
     21     -12.7011      2.00000
     22     -12.7010      2.00000
     23     -12.5600      2.00000
     24     -12.5598      2.00000
     25     -12.5598      2.00000
     26     -12.4904      2.00000
     27     -12.4904      2.00000
     28     -12.4902      2.00000
     29     -12.4331      2.00000
     30     -12.4330      2.00000
     31     -12.3730      2.00000
     32     -12.3724      2.00000
     33     -12.3691      2.00000
     34     -12.3687      2.00000
     35     -12.3680      2.00000
     36     -12.0444      2.00000
     37     -11.3365      2.00000
     38     -11.3365      2.00000
     39     -11.3363      2.00000
     40     -11.2764      2.00000
     41      -0.4789      2.00000
     42      -0.4393      2.00000
     43      -0.4389      2.00000
     44      -0.4384      2.00000
     45       0.4589      2.00000
     46       0.4590      2.00000
     47       0.4590      2.00000
     48       0.4900      2.00000
     49       0.4900      2.00000
     50       0.4980      2.00000
     51       0.4980      2.00000
     52       0.4980      2.00000
     53       0.9004      2.00000
     54       0.9004      2.00000
     55       0.9005      2.00000
     56       1.0365      2.00000
     57       1.1379      2.00000
     58       1.1387      2.00000
     59       1.1395      2.00000
     60       1.2594      2.00000
     61       1.2594      2.00000
     62       1.2594      2.00000
     63       1.3050      2.00000
     64       1.3051      2.00000
     65       5.1677      0.00000
     66       5.1688      0.00000
     67       5.1699      0.00000
     68       6.0773      0.00000
     69       7.5182      0.00000
     70       7.7747      0.00000
     71       7.7868      0.00000
     72       7.7882      0.00000
     73       7.7898      0.00000
     74       7.9924      0.00000
     75       7.9926      0.00000
     76       8.9353      0.00000

 k-point     3 :       0.5000    0.0000    0.0000
  band No.  band energies     occupation 
      1     -30.6451      2.00000
      2     -30.6363      2.00000
      3     -30.5553      2.00000
      4     -30.5506      2.00000
      5     -30.5464      2.00000
      6     -30.5464      2.00000
      7     -30.5417      2.00000
      8     -30.5375      2.00000
      9     -14.5316      2.00000
     10     -14.5306      2.00000
     11     -14.5297      2.00000
     12     -14.5277      2.00000
     13     -14.5269      2.00000
     14     -14.5261      2.00000
     15     -14.4402      2.00000
     16     -14.4394      2.00000
     17     -12.8338      2.00000
     18     -12.8306      2.00000
     19     -12.8284      2.00000
     20     -12.8263      2.00000
     21     -12.8241      2.00000
     22     -12.8209      2.00000
     23     -12.6033      2.00000
     24     -12.6019      2.00000
     25     -12.6000      2.00000
     26     -12.5950      2.00000
     27     -12.5932      2.00000
     28     -12.5917      2.00000
     29     -12.4075      2.00000
     30     -12.4073      2.00000
     31     -12.3989      2.00000
     32     -12.3985      2.00000
     33     -11.7933      2.00000
     34     -11.7858      2.00000
     35     -11.7854      2.00000
     36     -11.7817      2.00000
     37     -11.7813      2.00000
     38     -11.7738      2.00000
     39     -11.5916      2.00000
     40     -11.5840      2.00000
     41       0.1881      2.00000
     42       0.1882      2.00000
     43       0.2552      2.00000
     44       0.2554      2.00000
     45       0.2567      2.00000
     46       0.2575      2.00000
     47       0.2587      2.00000
     48       0.2590      2.00000
     49       0.7461      2.00000
     50       0.7467      2.00000
     51       0.7468      2.00000
     52       0.7468      2.00000
     53       0.7469      2.00000
     54       0.7475      2.00000
     55       0.8670      2.00000
     56       0.8686      2.00000
     57       0.8706      2.00000
     58       0.8708      2.00000
     59       0.8723      2.00000
     60       0.8732      2.00000
     61       0.8733      2.00000
     62       0.8736      2.00000
     63       0.8745      2.00000
     64       0.8768      2.00000
     65       6.4346      0.00000
     66       6.4358      0.00000
     67       6.4403      0.00000
     68       6.4429      0.00000
     69       6.4475      0.00000
     70       6.4486      0.00000
     71       7.4262      0.00000
     72       7.4422      0.00000
     73       7.6362      0.00000
     74       7.6363      0.00000
     75       8.8364      0.00000
     76       8.8466      0.00000

 k-point     4 :       0.0000    0.2500    0.0000
  band No.  band energies     occupation 
      1     -30.6917      2.00000
      2     -30.5895      2.00000
      3     -30.5623      2.00000
      4     -30.5621      2.00000
      5     -30.5611      2.00000
      6     -30.5315      2.00000
      7     -30.5302      2.00000
      8     -30.5296      2.00000
      9     -14.9023      2.00000
     10     -14.9021      2.00000
     11     -14.9019      2.00000
     12     -14.8750      2.00000
     13     -13.9840      2.00000
     14     -13.9826      2.00000
     15     -13.9813      2.00000
     16     -13.8599      2.00000
     17     -13.1021      2.00000
     18     -13.0998      2.00000
     19     -13.0976      2.00000
     20     -12.7011      2.00000
     21     -12.7011      2.00000
     22     -12.7010      2.00000
     23     -12.5601      2.00000
     24     -12.5599      2.00000
     25     -12.5598      2.00000
     26     -12.4907      2.00000
     27     -12.4904      2.00000
     28     -12.4904      2.00000
     29     -12.4329      2.00000
     30     -12.4327      2.00000
     31     -12.3736      2.00000
     32     -12.3727      2.00000
     33     -12.3690      2.00000
     34     -12.3686      2.00000
     35     -12.3672      2.00000
     36     -12.0443      2.00000
     37     -11.3366      2.00000
     38     -11.3365      2.00000
     39     -11.3362      2.00000
     40     -11.2764      2.00000
     41      -0.4790      2.00000
     42      -0.4397      2.00000
     43      -0.4389      2.00000
     44      -0.4381      2.00000
     45       0.4588      2.00000
     46       0.4590      2.00000
     47       0.4591      2.00000
     48       0.4900      2.00000
     49       0.4900      2.00000
     50       0.4980      2.00000
     51       0.4980      2.00000
     52       0.4980      2.00000
     53       0.9003      2.00000
     54       0.9004      2.00000
     55       0.9005      2.00000
     56       1.0365      2.00000
     57       1.1373      2.00000
     58       1.1387      2.00000
     59       1.1401      2.00000
     60       1.2594      2.00000
     61       1.2594      2.00000
     62       1.2595      2.00000
     63       1.3050      2.00000
     64       1.3051      2.00000
     65       5.1669      0.00000
     66       5.1688      0.00000
     67       5.1707      0.00000
     68       6.0773      0.00000
     69       7.5183      0.00000
     70       7.7741      0.00000
     71       7.7859      0.00000
     72       7.7881      0.00000
     73       7.7910      0.00000
     74       7.9925      0.00000
     75       7.9926      0.00000
     76       8.9347      0.00000

 k-point     5 :       0.2500    0.2500    0.0000
  band No.  band energies     occupation 
      1     -30.6849      2.00000
      2     -30.5711      2.00000
      3     -30.5687      2.00000
      4     -30.5682      2.00000
      5     -30.5682      2.00000
      6     -30.5503      2.00000
      7     -30.5235      2.00000
      8     -30.5235      2.00000
      9     -14.8684      2.00000
     10     -14.8680      2.00000
     11     -14.8680      2.00000
     12     -14.8677      2.00000
     13     -14.0803      2.00000
     14     -13.9158      2.00000
     15     -13.9158      2.00000
     16     -13.8946      2.00000
     17     -13.2774      2.00000
     18     -13.2774      2.00000
     19     -12.8391      2.00000
     20     -12.8391      2.00000
     21     -12.6881      2.00000
     22     -12.6881      2.00000
     23     -12.5993      2.00000
[...]
      7     -30.5454      2.00000
      8     -30.5255      2.00000
      9     -14.7068      2.00000
     10     -14.7068      2.00000
     11     -14.6786      2.00000
     12     -14.6786      2.00000
     13     -14.3040      2.00000
     14     -14.3023      2.00000
     15     -14.2445      2.00000
     16     -14.1895      2.00000
     17     -13.1955      2.00000
     18     -12.7928      2.00000
     19     -12.7903      2.00000
     20     -12.7791      2.00000
     21     -12.7789      2.00000
     22     -12.7665      2.00000
     23     -12.7664      2.00000
     24     -12.6384      2.00000
     25     -12.6003      2.00000
     26     -12.5998      2.00000
     27     -12.5002      2.00000
     28     -12.5001      2.00000
     29     -12.4947      2.00000
     30     -12.4947      2.00000
     31     -12.4808      2.00000
     32     -12.3631      2.00000
     33     -11.9897      2.00000
     34     -11.9891      2.00000
     35     -11.9657      2.00000
     36     -11.7519      2.00000
     37     -11.5308      2.00000
     38     -11.5307      2.00000
     39     -11.4766      2.00000
     40     -11.4765      2.00000
     41      -0.1818      2.00000
     42      -0.1818      2.00000
     43      -0.1091      2.00000
     44      -0.1091      2.00000
     45       0.4603      2.00000
     46       0.4841      2.00000
     47       0.4845      2.00000
     48       0.5295      2.00000
     49       0.6265      2.00000
     50       0.6269      2.00000
     51       0.6314      2.00000
     52       0.6318      2.00000
     53       0.7078      2.00000
     54       0.7078      2.00000
     55       0.8196      2.00000
     56       0.8196      2.00000
     57       0.8813      2.00000
     58       0.8822      2.00000
     59       0.9229      2.00000
     60       0.9287      2.00000
     61       1.0315      2.00000
     62       1.2203      2.00000
     63       1.2236      2.00000
     64       1.3403      2.00000
     65       5.7592      0.00000
     66       5.7649      0.00000
     67       6.2063      0.00000
     68       6.8704      0.00000
     69       7.0533      0.00000
     70       7.0534      0.00000
     71       7.2288      0.00000
     72       7.8215      0.00000
     73       7.8216      0.00000
     74       8.1719      0.00000
     75       8.1719      0.00000
     76       8.2401      0.00000

 k-point    17 :       0.5000   -0.2500    0.2500
  band No.  band energies     occupation 
      1     -30.6082      2.00000
      2     -30.6082      2.00000
      3     -30.5994      2.00000
      4     -30.5994      2.00000
      5     -30.5407      2.00000
      6     -30.5407      2.00000
      7     -30.5318      2.00000
      8     -30.5318      2.00000
      9     -14.4752      2.00000
     10     -14.4750      2.00000
     11     -14.4737      2.00000
     12     -14.4735      2.00000
     13     -14.4657      2.00000
     14     -14.4647      2.00000
     15     -14.4641      2.00000
     16     -14.4632      2.00000
     17     -12.9920      2.00000
     18     -12.9920      2.00000
     19     -12.9915      2.00000
     20     -12.9914      2.00000
     21     -12.6984      2.00000
     22     -12.6984      2.00000
     23     -12.6933      2.00000
     24     -12.6933      2.00000
     25     -12.6319      2.00000
     26     -12.6318      2.00000
     27     -12.6314      2.00000
     28     -12.6313      2.00000
     29     -12.4679      2.00000
     30     -12.4679      2.00000
     31     -12.4626      2.00000
     32     -12.4625      2.00000
     33     -11.6645      2.00000
     34     -11.6643      2.00000
     35     -11.6641      2.00000
     36     -11.6640      2.00000
     37     -11.6325      2.00000
     38     -11.6322      2.00000
     39     -11.6312      2.00000
     40     -11.6312      2.00000
     41       0.0034      2.00000
     42       0.0042      2.00000
     43       0.0043      2.00000
     44       0.0052      2.00000
     45       0.1217      2.00000
     46       0.1218      2.00000
     47       0.1227      2.00000
     48       0.1228      2.00000
     49       0.7030      2.00000
     50       0.7034      2.00000
     51       0.7043      2.00000
     52       0.7047      2.00000
     53       0.7935      2.00000
     54       0.7937      2.00000
     55       0.7940      2.00000
     56       0.7942      2.00000
     57       1.0449      2.00000
     58       1.0467      2.00000
     59       1.0470      2.00000
     60       1.0488      2.00000
     61       1.2250      2.00000
     62       1.2263      2.00000
     63       1.2263      2.00000
     64       1.2275      2.00000
     65       6.4859      0.00000
     66       6.4859      0.00000
     67       6.4873      0.00000
     68       6.4873      0.00000
     69       7.5953      0.00000
     70       7.6024      0.00000
     71       7.6058      0.00000
     72       7.6127      0.00000
     73       7.8443      0.00000
     74       7.8504      0.00000
     75       7.8604      0.00000
     76       7.9158      0.00000

 k-point    18 :       0.0000    0.5000    0.5000
  band No.  band energies     occupation 
      1     -30.6197      2.00000
      2     -30.6182      2.00000
      3     -30.5709      2.00000
      4     -30.5692      2.00000
      5     -30.5692      2.00000
      6     -30.5676      2.00000
      7     -30.5235      2.00000
      8     -30.5218      2.00000
      9     -14.6638      2.00000
     10     -14.6630      2.00000
     11     -14.6630      2.00000
     12     -14.6623      2.00000
     13     -14.2371      2.00000
     14     -14.2371      2.00000
     15     -14.1704      2.00000
     16     -14.1704      2.00000
     17     -13.0635      2.00000
     18     -13.0634      2.00000
     19     -13.0634      2.00000
     20     -13.0634      2.00000
     21     -12.8147      2.00000
     22     -12.8146      2.00000
     23     -12.8146      2.00000
     24     -12.8145      2.00000
     25     -12.5547      2.00000
     26     -12.5541      2.00000
     27     -12.5540      2.00000
     28     -12.5540      2.00000
     29     -12.4486      2.00000
     30     -12.4485      2.00000
     31     -12.4484      2.00000
     32     -12.4478      2.00000
     33     -11.8514      2.00000
     34     -11.8514      2.00000
     35     -11.7811      2.00000
     36     -11.7810      2.00000
     37     -11.4498      2.00000
     38     -11.4491      2.00000
     39     -11.4490      2.00000
     40     -11.4480      2.00000
     41      -0.2267      2.00000
     42      -0.2261      2.00000
     43      -0.2261      2.00000
     44      -0.2254      2.00000
     45       0.1322      2.00000
     46       0.1322      2.00000
     47       0.3550      2.00000
     48       0.3550      2.00000
     49       0.4559      2.00000
     50       0.4562      2.00000
     51       0.4563      2.00000
     52       0.4565      2.00000
     53       1.0637      2.00000
     54       1.0655      2.00000
     55       1.0655      2.00000
     56       1.0655      2.00000
     57       1.0664      2.00000
     58       1.0676      2.00000
     59       1.0676      2.00000
     60       1.0705      2.00000
     61       1.3625      2.00000
     62       1.3625      2.00000
     63       1.3625      2.00000
     64       1.3625      2.00000
     65       5.7998      0.00000
     66       5.7998      0.00000
     67       7.3871      0.00000
     68       7.3875      0.00000
     69       7.4616      0.00000
     70       7.4621      0.00000
     71       7.4622      0.00000
     72       7.4626      0.00000
     73       7.6097      0.00000
     74       7.6163      0.00000
     75       7.6164      0.00000
     76       7.6238      0.00000


--------------------------------------------------------------------------------------------------------


 soft charge-density along one line, spin component           1
         0         1         2         3         4         5         6         7         8         9
 total charge-density along one line
 
 pseudopotential strength for first ion, spin component:           1
-11.809  -2.630  -0.000  -0.000   0.000  -0.000  -0.000   0.000
 -2.630  -1.831  -0.000  -0.000   0.000  -0.000  -0.000   0.000
 -0.000  -0.000 -15.130   0.000  -0.000 -14.842   0.000  -0.000
 -0.000  -0.000   0.000 -15.130  -0.000   0.000 -14.842  -0.000
  0.000   0.000  -0.000  -0.000 -15.130  -0.000  -0.000 -14.842
 -0.000  -0.000 -14.842   0.000  -0.000 -14.559   0.000  -0.000
 -0.000  -0.000   0.000 -14.842  -0.000   0.000 -14.559  -0.000
  0.000   0.000  -0.000  -0.000 -14.842  -0.000  -0.000 -14.559
 -0.000  -0.000   0.000   0.000  -0.000   0.000   0.000  -0.000
  0.000   0.000  -0.000  -0.000   0.000  -0.000  -0.000   0.000
 -0.000  -0.000   0.000  -0.000  -0.000   0.000  -0.000  -0.000
 -0.000  -0.000   0.000   0.000  -0.000   0.000   0.000  -0.000
  0.000   0.000   0.000  -0.000   0.000   0.000  -0.000   0.000
 -0.000  -0.000   0.000   0.000  -0.000   0.000   0.000  -0.000
  0.000   0.000  -0.000  -0.000   0.000  -0.000  -0.000   0.000
 -0.000  -0.000   0.000  -0.000  -0.000   0.000  -0.000  -0.000
 -0.000  -0.000   0.000   0.000  -0.000   0.000   0.000  -0.000
  0.000   0.000   0.000  -0.000   0.000   0.000  -0.000   0.000
 total augmentation occupancy for first ion, spin component:           1
  1.996  -0.015  -0.000  -0.000   0.000   0.000   0.000  -0.000   0.000  -0.000  -0.000   0.000   0.000  -0.000   0.000   0.000
 -0.015   0.595  -0.000  -0.000  -0.000   0.000   0.000  -0.000   0.000  -0.000   0.000   0.000  -0.000  -0.000   0.000  -0.000
 -0.000  -0.000  11.950  -0.000   0.002 -10.274   0.000  -0.002   0.000  -0.001   0.000  -0.000   0.000  -0.000   0.000  -0.000
 -0.000  -0.000  -0.000  11.950   0.002   0.000 -10.274  -0.002  -0.000  -0.001  -0.000   0.000  -0.000   0.000   0.000   0.000
  0.000  -0.000   0.002   0.002  11.950  -0.002  -0.002 -10.274  -0.001  -0.000   0.000  -0.001  -0.000   0.000   0.000   0.000
  0.000   0.000 -10.274   0.000  -0.002  10.625  -0.000   0.002  -0.000   0.001  -0.000   0.000  -0.000   0.000  -0.001   0.000
  0.000   0.000   0.000 -10.274  -0.002  -0.000  10.625   0.002   0.000   0.001   0.000  -0.000   0.000  -0.000  -0.001  -0.000
 -0.000  -0.000  -0.002  -0.002 -10.274   0.002   0.002  10.625   0.001   0.000  -0.000   0.001   0.000  -0.001  -0.000  -0.000
  0.000   0.000   0.000  -0.000  -0.001  -0.000   0.000   0.001   2.475   0.001  -0.001   0.000  -0.000  -1.346  -0.000   0.000
 -0.000  -0.000  -0.001  -0.001  -0.000   0.001   0.001   0.000   0.001   2.475  -0.000   0.001   0.000  -0.000  -1.346   0.000
 -0.000   0.000   0.000  -0.000   0.000  -0.000   0.000  -0.000  -0.001  -0.000   9.113   0.000  -0.000   0.000   0.000  -5.030
  0.000   0.000  -0.000   0.000  -0.001   0.000  -0.000   0.001   0.000   0.001   0.000   2.475   0.001  -0.000  -0.000  -0.000
  0.000  -0.000   0.000  -0.000  -0.000  -0.000   0.000   0.000  -0.000   0.000  -0.000   0.001   9.113   0.000  -0.000  -0.000
 -0.000  -0.000  -0.000   0.000   0.000   0.000  -0.000  -0.001  -1.346  -0.000   0.000  -0.000   0.000   0.732   0.000  -0.000
  0.000   0.000   0.000   0.000   0.000  -0.001  -0.001  -0.000  -0.000  -1.346   0.000  -0.000  -0.000   0.000   0.732  -0.000
  0.000  -0.000  -0.000   0.000   0.000   0.000  -0.000  -0.000   0.000   0.000  -5.030  -0.000  -0.000  -0.000  -0.000   2.780
 -0.000  -0.000   0.000  -0.000   0.000  -0.000   0.000  -0.001  -0.000  -0.000  -0.000  -1.346  -0.000   0.000   0.000   0.000
 -0.000   0.000  -0.000   0.000  -0.000   0.000  -0.000   0.000   0.000  -0.000  -0.000  -0.000  -5.030  -0.000   0.000   0.000


------------------------ aborting loop because EDIFF is reached ----------------------------------------


    CHARGE:  cpu time    0.8560: real time    0.8557
    FORLOC:  cpu time    0.0160: real time    0.0185
    FORNL :  cpu time    4.6600: real time    4.6602
    STRESS:  cpu time    8.8600: real time    8.8641
    FORCOR:  cpu time    0.1640: real time    0.1623
    FORHAR:  cpu time    0.0480: real time    0.0503
    MIXING:  cpu time    0.0080: real time    0.0068
    OFIELD:  cpu time    0.0000: real time    0.0000

  FORCE on cell =-STRESS in cart. coord.  units (eV):
  Direction    XX          YY          ZZ          XY          YZ          ZX
  --------------------------------------------------------------------------------------
  Alpha Z   796.84036   796.84036   796.84036
  Ewald   -2820.80370 -2820.78791 -2820.78791     0.00000    -0.01596     0.00000
  Hartree   640.28153   640.28694   640.28694     0.00000    -0.00902     0.00000
  E(xc)    -536.23413  -536.23410  -536.23410     0.00000    -0.00002     0.00000
  Local     283.79335   283.77221   283.77221     0.00004     0.02537     0.00004
  n-local  -605.05597  -605.27415  -604.83887    -1.32538     0.00025     0.00000
  augment    80.65904    80.65911    80.65911    -0.00005    -0.00010    -0.00005
  Kinetic  2160.51525  2160.54929  2160.48447     3.27482    -0.00076     0.00000
  Fock        0.00000     0.00000     0.00000     0.00000     0.00000     0.00000
  -------------------------------------------------------------------------------------
  Total      -0.00426    -0.00302    -0.00302     0.00000    -0.00024     0.00000
  in kB      -0.02522    -0.01786    -0.01786     0.00000    -0.00144     0.00000
  external pressure =       -0.02 kB  Pullay stress =        0.00 kB


 VOLUME and BASIS-vectors are now :
 -----------------------------------------------------------------------------
  energy-cutoff  :      800.00
  volume of cell :      270.68
      direct lattice vectors                 reciprocal lattice vectors
     0.000000000  5.134209980  5.134209980    -0.097385966  0.097385966  0.097385966
     5.134209980  0.000000000  5.134209980     0.097385966 -0.097385966  0.097385966
     5.134209980  5.134209980  0.000000000     0.097385966  0.097385966 -0.097385966

  length of vectors
     7.260869386  7.260869386  7.260869386     0.168677442  0.168677442  0.168677442


 FORCES acting on ions
    electron-ion (+dipol)            ewald-force                    non-local-force                 convergence-correction
 -----------------------------------------------------------------------------------------------
   0.123E-02 -.965E-01 -.965E-01   -.119E-02 0.945E-01 0.945E-01   -.251E-04 0.485E-03 0.485E-03   0.933E-05 -.537E-06 -.537E-06
   -.335E-02 0.258E+00 0.258E+00   0.312E-02 -.245E+00 -.245E+00   0.225E-03 -.959E-02 -.959E-02   -.182E-05 0.611E-06 0.611E-06
   0.123E-09 -.815E+00 0.254E+00   0.125E-13 0.772E+00 -.242E+00   0.000E+00 0.457E-01 -.946E-02   -.423E-12 -.248E-05 -.893E-05
   0.111E-09 0.261E+00 -.818E+00   0.142E-13 -.248E+00 0.775E+00   0.000E+00 -.971E-02 0.458E-01   0.719E-12 0.975E-05 0.140E-05
   0.120E-09 0.254E+00 -.815E+00   0.141E-13 -.242E+00 0.772E+00   0.000E+00 -.946E-02 0.457E-01   -.418E-12 -.893E-05 -.248E-05
   0.108E-09 -.818E+00 0.261E+00   0.156E-13 0.775E+00 -.248E+00   0.000E+00 0.458E-01 -.971E-02   0.722E-12 0.140E-05 0.975E-05
   0.335E-02 0.258E+00 0.258E+00   -.312E-02 -.245E+00 -.245E+00   -.225E-03 -.959E-02 -.959E-02   0.182E-05 0.611E-06 0.611E-06
   -.123E-02 -.965E-01 -.965E-01   0.119E-02 0.945E-01 0.945E-01   0.251E-04 0.485E-03 0.485E-03   -.933E-05 -.537E-06 -.537E-06
   -.564E-07 0.116E+01 0.116E+01   -.377E-13 -.115E+01 -.115E+01   0.000E+00 -.423E-01 -.423E-01   -.236E-10 0.102E-05 0.102E-05
   0.140E-06 -.332E+00 -.332E+00   -.159E-13 0.311E+00 0.311E+00   0.000E+00 0.306E-01 0.306E-01   0.130E-11 -.261E-06 -.261E-06
   -.210E+00 0.632E-01 -.122E+00   0.196E+00 -.607E-01 0.115E+00   0.211E-01 -.376E-02 0.949E-02   -.180E-06 0.317E-06 -.452E-06
   0.210E+00 -.122E+00 0.632E-01   -.196E+00 0.115E+00 -.607E-01   -.211E-01 0.949E-02 -.376E-02   0.180E-06 -.452E-06 0.317E-06
   -.210E+00 -.122E+00 0.632E-01   0.196E+00 0.115E+00 -.607E-01   0.211E-01 0.949E-02 -.376E-02   -.180E-06 -.452E-06 0.317E-06
   0.210E+00 0.632E-01 -.122E+00   -.196E+00 -.607E-01 0.115E+00   -.211E-01 -.376E-02 0.949E-02   0.180E-06 0.317E-06 -.452E-06
   -.101E-08 0.878E-01 0.878E-01   -.122E-13 -.804E-01 -.804E-01   0.000E+00 -.117E-01 -.117E-01   0.517E-12 0.655E-07 0.655E-07
   0.135E-08 -.760E-01 -.760E-01   -.153E-13 0.567E-01 0.567E-01   0.000E+00 0.299E-01 0.299E-01   -.483E-11 0.885E-07 0.885E-07
 -----------------------------------------------------------------------------------------------
   -.608E-09 -.722E-01 -.722E-01   -.630E-14 0.822E-14 0.812E-14   0.000E+00 0.722E-01 0.722E-01   -.621E-11 0.528E-06 0.528E-06
 
 
 POSITION                                       TOTAL-FORCE (eV/Angst)
 -----------------------------------------------------------------------------------
      0.00000      0.00000      0.00000         0.000021     -0.001462     -0.001462
      0.00000      2.56710      2.56710        -0.000010      0.003099      0.003099
      2.56710      0.00000      2.56710         0.000000      0.002470      0.003097
      2.56710      2.56710      5.13421         0.000000      0.003100      0.002968
      2.56710      2.56710      0.00000         0.000000      0.003097      0.002470
      2.56710      5.13421      2.56710         0.000000      0.002968      0.003100
      5.13421      2.56710      2.56710         0.000010      0.003099      0.003099
      5.13421      5.13421      5.13421        -0.000021     -0.001462     -0.001462
      2.56710      2.57418      2.57418         0.000000     -0.035112     -0.035112
      2.56710      5.13421      5.13421         0.000000      0.010224      0.010224
      5.13421      2.56710      5.13421         0.007230     -0.001212      0.002994
      5.13421      5.13421      7.70131        -0.007230      0.002994     -0.001212
      5.13421      5.13421      2.56710         0.007230      0.002994     -0.001212
      5.13421      7.70131      5.13421        -0.007230     -0.001212      0.002994
      7.70131      5.13421      5.13421         0.000000     -0.004237     -0.004237
      7.70131      7.70131      7.70131         0.000000      0.010652      0.010652
 -----------------------------------------------------------------------------------
    total drift:                               -0.000000     -0.000003     -0.000003


--------------------------------------------------------------------------------------------------------



  FREE ENERGIE OF THE ION-ELECTRON SYSTEM (eV)
  ---------------------------------------------------
  free  energy   TOTEN  =      -101.15363875 eV

  energy  without entropy=     -101.15363875  energy(sigma->0) =     -101.15363875
 


--------------------------------------------------------------------------------------------------------


    POTLOK:  cpu time    0.6680: real time    0.6707


--------------------------------------------------------------------------------------------------------


     LOOP+:  cpu time  208.2560: real time  208.3490
    4ORBIT:  cpu time    0.0000: real time    0.0000

 total amount of memory used by VASP on root node    97735. kBytes
========================================================================

   base      :      30000. kBytes
   nonl-proj :       9520. kBytes
   fftplans  :      26995. kBytes
   grid      :      11753. kBytes
   one-center:         31. kBytes
   wavefun   :      19436. kBytes
 
  
  
 General timing and accounting informations for this job:
 ========================================================
  
                  Total CPU time used (sec):      211.652
                            User time (sec):      210.256
                          System time (sec):        1.396
                         Elapsed time (sec):      211.750
  
                   Maximum memory used (kb):      201492.
                   Average memory used (kb):           0.
  
                          Minor page faults:       578972
                          Major page faults:            0
                 Voluntary context switches:           53
