nqpoint: 202    
npath: 2      
segment_nqpoint:
- 101
- 101
reciprocal_lattice:
- [  -0.19477193,   0.19477193,   0.19477193 ] # a*
- [   0.19477193,  -0.19477193,   0.19477193 ] # b*
- [   0.19477193,   0.19477193,  -0.19477193 ] # c*
natom: 2      
lattice:
- [     0.0000000000000000,     2.5671049901180245,     2.5671049901180245 ] # a
- [     2.5671049901180245,     0.0000000000000000,     2.5671049901180245 ] # b
- [     2.5671049901180245,     2.5671049901180245,     0.0000000000000000 ] # c
atoms:
- symbol: Sr # 1
  position: [  0.0000000000000000,  0.0000000000000000,  0.0000000000000000 ]
  mass: 87.620000
- symbol: O  # 2
  position: [  0.5000000000000000,  0.5000000000000000,  0.5000000000000000 ]
  mass: 15.999400
supercell_matrix:
- [    4,    0,    0 ]
- [    0,    4,    0 ]
- [    0,    0,    4 ]

phonon:
- q-position: [    0.5000000,    0.0000000,    0.5000000 ]
  distance:    0.0000000
  label: 'X'
  band:
  - # 1
    frequency:    3.4625941468
  - # 2
    frequency:    3.4625941468
  - # 3
    frequency:    6.0280467427
  - # 4
    frequency:    8.2056509385
  - # 5
    frequency:    8.2056509385
  - # 6
    frequency:    9.8613384703

- q-position: [    0.4950000,    0.0000000,    0.4950000 ]
  distance:    0.0019477
  band:
  - # 1
    frequency:    3.4626612461
  - # 2
    frequency:    3.4626612461
  - # 3
    frequency:    6.0276732009
  - # 4
    frequency:    8.2064359740
  - # 5
    frequency:    8.2064359740
  - # 6
    frequency:    9.8615648458

- q-position: [    0.4900000,    0.0000000,    0.4900000 ]
  distance:    0.0038954
  band:
  - # 1
    frequency:    3.4628603510
  - # 2
    frequency:    3.4628603510
  - # 3
    frequency:    6.0265516560
  - # 4
    frequency:    8.2087872876
  - # 5
    frequency:    8.2087872876
  - # 6
    frequency:    9.8622415387

- q-position: [    0.4850000,    0.0000000,    0.4850000 ]
  distance:    0.0058432
  band:
  - # 1
    frequency:    3.4631849096
  - # 2
    frequency:    3.4631849096
  - # 3
    frequency:    6.0246793589
  - # 4
    frequency:    8.2126935187
  - # 5
    frequency:    8.2126935187
  - # 6
    frequency:    9.8633612571

- q-position: [    0.4800000,    0.0000000,    0.4800000 ]
  distance:    0.0077909
  band:
  - # 1
    frequency:    3.4636240934
  - # 2
    frequency:    3.4636240934
  - # 3
    frequency:    6.0220517578
  - # 4
    frequency:    8.2181357915
  - # 5
    frequency:    8.2181357915
  - # 6
    frequency:    9.8649118788

- q-position: [    0.4750000,    0.0000000,    0.4750000 ]
  distance:    0.0097386
  band:
  - # 1
    frequency:    3.4641629319
  - # 2
    frequency:    3.4641629319
  - # 3
    frequency:    6.0186625430
  - # 4
    frequency:    8.2250878027
  - # 5
    frequency:    8.2250878027
  - # 6
    frequency:    9.8668764979

- q-position: [    0.4700000,    0.0000000,    0.4700000 ]
  distance:    0.0116863
  band:
  - # 1
    frequency:    3.4647824960
  - # 2
    frequency:    3.4647824960
  - # 3
    frequency:    6.0145037077
  - # 4
    frequency:    8.2335159445
  - # 5
    frequency:    8.2335159445
  - # 6
    frequency:    9.8692334897

- q-position: [    0.4650000,    0.0000000,    0.4650000 ]
  distance:    0.0136340
  band:
  - # 1
    frequency:    3.4654601256
  - # 2
    frequency:    3.4654601256
  - # 3
    frequency:    6.0095656240
  - # 4
    frequency:    8.2433794613
  - # 5
    frequency:    8.2433794613
  - # 6
    frequency:    9.8719565949

- q-position: [    0.4600000,    0.0000000,    0.4600000 ]
  distance:    0.0155818
  band:
  - # 1
    frequency:    3.4661696954
  - # 2
    frequency:    3.4661696954
  - # 3
    frequency:    6.0038371337
  - # 4
    frequency:    8.2546306414
  - # 5
    frequency:    8.2546306414
  - # 6
    frequency:    9.8750150221

- q-position: [    0.4550000,    0.0000000,    0.4550000 ]
  distance:    0.0175295
  band:
  - # 1
    frequency:    3.4668819136
  - # 2
    frequency:    3.4668819136
  - # 3
    frequency:    5.9973056491
  - # 4
    frequency:    8.2672150415
  - # 5
    frequency:    8.2672150415
  - # 6
    frequency:    9.8783735700

- q-position: [    0.4500000,    0.0000000,    0.4500000 ]
  distance:    0.0194772
  band:
  - # 1
    frequency:    3.4675646452
  - # 2
    frequency:    3.4675646452
  - # 3
    frequency:    5.9899572657
  - # 4
    frequency:    8.2810717441
  - # 5
    frequency:    8.2810717441
  - # 6
    frequency:    9.8819927676

- q-position: [    0.4450000,    0.0000000,    0.4450000 ]
  distance:    0.0214249
  band:
  - # 1
    frequency:    3.4681832525
  - # 2
    frequency:    3.4681832525
  - # 3
    frequency:    5.9817768810
  - # 4
    frequency:    8.2961336464
  - # 5
    frequency:    8.2961336464
  - # 6
    frequency:    9.8858290341

- q-position: [    0.4400000,    0.0000000,    0.4400000 ]
  distance:    0.0233726
  band:
  - # 1
    frequency:    3.4687009481
  - # 2
    frequency:    3.4687009481
  - # 3
    frequency:    5.9727483202
  - # 4
    frequency:    8.3123277795
  - # 5
    frequency:    8.3123277795
  - # 6
    frequency:    9.8898348566

- q-position: [    0.4350000,    0.0000000,    0.4350000 ]
  distance:    0.0253204
  band:
  - # 1
    frequency:    3.4690791491
  - # 2
    frequency:    3.4690791491
  - # 3
    frequency:    5.9628544647
  - # 4
    frequency:    8.3295756556
  - # 5
    frequency:    8.3295756556
  - # 6
    frequency:    9.8939589869

- q-position: [    0.4300000,    0.0000000,    0.4300000 ]
  distance:    0.0272681
  band:
  - # 1
    frequency:    3.4692778303
  - # 2
    frequency:    3.4692778303
  - # 3
    frequency:    5.9520773821
  - # 4
    frequency:    8.3477936423
  - # 5
    frequency:    8.3477936423
  - # 6
    frequency:    9.8981466559

- q-position: [    0.4250000,    0.0000000,    0.4250000 ]
  distance:    0.0292158
  band:
  - # 1
    frequency:    3.4692558676
  - # 2
    frequency:    3.4692558676
  - # 3
    frequency:    5.9403984554
  - # 4
    frequency:    8.3668933606
  - # 5
    frequency:    8.3668933606
  - # 6
    frequency:    9.9023398050

- q-position: [    0.4200000,    0.0000000,    0.4200000 ]
  distance:    0.0311635
  band:
  - # 1
    frequency:    3.4689713666
  - # 2
    frequency:    3.4689713666
  - # 3
    frequency:    5.9277985101
  - # 4
    frequency:    8.3867821050
  - # 5
    frequency:    8.3867821050
  - # 6
    frequency:    9.9064773348

- q-position: [    0.4150000,    0.0000000,    0.4150000 ]
  distance:    0.0331112
  band:
  - # 1
    frequency:    3.4683819733
  - # 2
    frequency:    3.4683819733
  - # 3
    frequency:    5.9142579363
  - # 4
    frequency:    8.4073632824
  - # 5
    frequency:    8.4073632824
  - # 6
    frequency:    9.9104953686

- q-position: [    0.4100000,    0.0000000,    0.4100000 ]
  distance:    0.0350589
  band:
  - # 1
    frequency:    3.4674451626
  - # 2
    frequency:    3.4674451626
  - # 3
    frequency:    5.8997568056
  - # 4
    frequency:    8.4285368666
  - # 5
    frequency:    8.4285368666
  - # 6
    frequency:    9.9143275309

- q-position: [    0.4050000,    0.0000000,    0.4050000 ]
  distance:    0.0370067
  band:
  - # 1
    frequency:    3.4661185007
  - # 2
    frequency:    3.4661185007
  - # 3
    frequency:    5.8842749806
  - # 4
    frequency:    8.4501998660
  - # 5
    frequency:    8.4501998660
  - # 6
    frequency:    9.9179052395

- q-position: [    0.4000000,    0.0000000,    0.4000000 ]
  distance:    0.0389544
  band:
  - # 1
    frequency:    3.4643598826
  - # 2
    frequency:    3.4643598826
  - # 3
    frequency:    5.8677922166
  - # 4
    frequency:    8.4722468008
  - # 5
    frequency:    8.4722468008
  - # 6
    frequency:    9.9211580090

- q-position: [    0.3950000,    0.0000000,    0.3950000 ]
  distance:    0.0409021
  band:
  - # 1
    frequency:    3.4621277401
  - # 2
    frequency:    3.4621277401
  - # 3
    frequency:    5.8502882540
  - # 4
    frequency:    8.4945701857
  - # 5
    frequency:    8.4945701857
  - # 6
    frequency:    9.9240137655

- q-position: [    0.3900000,    0.0000000,    0.3900000 ]
  distance:    0.0428498
  band:
  - # 1
    frequency:    3.4593812233
  - # 2
    frequency:    3.4593812233
  - # 3
    frequency:    5.8317429020
  - # 4
    frequency:    8.5170610165
  - # 5
    frequency:    8.5170610165
  - # 6
    frequency:    9.9263991697

- q-position: [    0.3850000,    0.0000000,    0.3850000 ]
  distance:    0.0447975
  band:
  - # 1
    frequency:    3.4560803536
  - # 2
    frequency:    3.4560803536
  - # 3
    frequency:    5.8121361114
  - # 4
    frequency:    8.5396092559
  - # 5
    frequency:    8.5396092559
  - # 6
    frequency:    9.9282399479

- q-position: [    0.3800000,    0.0000000,    0.3800000 ]
  distance:    0.0467453
  band:
  - # 1
    frequency:    3.4521861513
  - # 2
    frequency:    3.4521861513
  - # 3
    frequency:    5.7914480382
  - # 4
    frequency:    8.5621043161
  - # 5
    frequency:    8.5621043161
  - # 6
    frequency:    9.9294612288

- q-position: [    0.3750000,    0.0000000,    0.3750000 ]
  distance:    0.0486930
  band:
  - # 1
    frequency:    3.4476607367
  - # 2
    frequency:    3.4476607367
  - # 3
    frequency:    5.7696590972
  - # 4
    frequency:    8.5844355353
  - # 5
    frequency:    8.5844355353
  - # 6
    frequency:    9.9299878837

- q-position: [    0.3700000,    0.0000000,    0.3700000 ]
  distance:    0.0506407
  band:
  - # 1
    frequency:    3.4424674094
  - # 2
    frequency:    3.4424674094
  - # 3
    frequency:    5.7467500054
  - # 4
    frequency:    8.6064926453
  - # 5
    frequency:    8.6064926453
  - # 6
    frequency:    9.9297448705

- q-position: [    0.3650000,    0.0000000,    0.3650000 ]
  distance:    0.0525884
  band:
  - # 1
    frequency:    3.4365707049
  - # 2
    frequency:    3.4365707049
  - # 3
    frequency:    5.7227018162
  - # 4
    frequency:    8.6281662281
  - # 5
    frequency:    8.6281662281
  - # 6
    frequency:    9.9286575772

- q-position: [    0.3600000,    0.0000000,    0.3600000 ]
  distance:    0.0545361
  band:
  - # 1
    frequency:    3.4299364330
  - # 2
    frequency:    3.4299364330
  - # 3
    frequency:    5.6974959449
  - # 4
    frequency:    8.6493481593
  - # 5
    frequency:    8.6493481593
  - # 6
    frequency:    9.9266521658

- q-position: [    0.3550000,    0.0000000,    0.3550000 ]
  distance:    0.0564839
  band:
  - # 1
    frequency:    3.4225316990
  - # 2
    frequency:    3.4225316990
  - # 3
    frequency:    5.6711141850
  - # 4
    frequency:    8.6699320358
  - # 5
    frequency:    8.6699320358
  - # 6
    frequency:    9.9236559135

- q-position: [    0.3500000,    0.0000000,    0.3500000 ]
  distance:    0.0584316
  band:
  - # 1
    frequency:    3.4143249095
  - # 2
    frequency:    3.4143249095
  - # 3
    frequency:    5.6435387166
  - # 4
    frequency:    8.6898135881
  - # 5
    frequency:    8.6898135881
  - # 6
    frequency:    9.9195975510

- q-position: [    0.3450000,    0.0000000,    0.3450000 ]
  distance:    0.0603793
  band:
  - # 1
    frequency:    3.4052857665
  - # 2
    frequency:    3.4052857665
  - # 3
    frequency:    5.6147521083
  - # 4
    frequency:    8.7088910735
  - # 5
    frequency:    8.7088910735
  - # 6
    frequency:    9.9144075954

- q-position: [    0.3400000,    0.0000000,    0.3400000 ]
  distance:    0.0623270
  band:
  - # 1
    frequency:    3.3953852503
  - # 2
    frequency:    3.3953852503
  - # 3
    frequency:    5.5847373111
  - # 4
    frequency:    8.7270656516
  - # 5
    frequency:    8.7270656516
  - # 6
    frequency:    9.9080186780

- q-position: [    0.3350000,    0.0000000,    0.3350000 ]
  distance:    0.0642747
  band:
  - # 1
    frequency:    3.3845955937
  - # 2
    frequency:    3.3845955937
  - # 3
    frequency:    5.5534776470
  - # 4
    frequency:    8.7442417400
  - # 5
    frequency:    8.7442417400
  - # 6
    frequency:    9.9003658647

- q-position: [    0.3300000,    0.0000000,    0.3300000 ]
  distance:    0.0662225
  band:
  - # 1
    frequency:    3.3728902497
  - # 2
    frequency:    3.3728902497
  - # 3
    frequency:    5.5209567919
  - # 4
    frequency:    8.7603273502
  - # 5
    frequency:    8.7603273502
  - # 6
    frequency:    9.8913869688

- q-position: [    0.3250000,    0.0000000,    0.3250000 ]
  distance:    0.0681702
  band:
  - # 1
    frequency:    3.3602438532
  - # 2
    frequency:    3.3602438532
  - # 3
    frequency:    5.4871587535
  - # 4
    frequency:    8.7752344038
  - # 5
    frequency:    8.7752344038
  - # 6
    frequency:    9.8810228551

- q-position: [    0.3200000,    0.0000000,    0.3200000 ]
  distance:    0.0701179
  band:
  - # 1
    frequency:    3.3466321790
  - # 2
    frequency:    3.3466321790
  - # 3
    frequency:    5.4520678451
  - # 4
    frequency:    8.7888790286
  - # 5
    frequency:    8.7888790286
  - # 6
    frequency:    9.8692177350

- q-position: [    0.3150000,    0.0000000,    0.3150000 ]
  distance:    0.0720656
  band:
  - # 1
    frequency:    3.3320320971
  - # 2
    frequency:    3.3320320971
  - # 3
    frequency:    5.4156686554
  - # 4
    frequency:    8.8011818352
  - # 5
    frequency:    8.8011818352
  - # 6
    frequency:    9.8559194512

- q-position: [    0.3100000,    0.0000000,    0.3100000 ]
  distance:    0.0740133
  band:
  - # 1
    frequency:    3.3164215257
  - # 2
    frequency:    3.3164215257
  - # 3
    frequency:    5.3779460153
  - # 4
    frequency:    8.8120681735
  - # 5
    frequency:    8.8120681735
  - # 6
    frequency:    9.8410797528

- q-position: [    0.3050000,    0.0000000,    0.3050000 ]
  distance:    0.0759611
  band:
  - # 1
    frequency:    3.2997793839
  - # 2
    frequency:    3.2997793839
  - # 3
    frequency:    5.3388849623
  - # 4
    frequency:    8.8214683714
  - # 5
    frequency:    8.8214683714
  - # 6
    frequency:    9.8246545588

- q-position: [    0.3000000,    0.0000000,    0.3000000 ]
  distance:    0.0779088
  band:
  - # 1
    frequency:    3.2820855437
  - # 2
    frequency:    3.2820855437
  - # 3
    frequency:    5.2984707024
  - # 4
    frequency:    8.8293179537
  - # 5
    frequency:    8.8293179537
  - # 6
    frequency:    9.8066042107

- q-position: [    0.2950000,    0.0000000,    0.2950000 ]
  distance:    0.0798565
  band:
  - # 1
    frequency:    3.2633207828
  - # 2
    frequency:    3.2633207828
  - # 3
    frequency:    5.2566885703
  - # 4
    frequency:    8.8355578439
  - # 5
    frequency:    8.8355578439
  - # 6
    frequency:    9.7868937137

- q-position: [    0.2900000,    0.0000000,    0.2900000 ]
  distance:    0.0818042
  band:
  - # 1
    frequency:    3.2434667381
  - # 2
    frequency:    3.2434667381
  - # 3
    frequency:    5.2135239889
  - # 4
    frequency:    8.8401345488
  - # 5
    frequency:    8.8401345488
  - # 6
    frequency:    9.7654929664

- q-position: [    0.2850000,    0.0000000,    0.2850000 ]
  distance:    0.0837519
  band:
  - # 1
    frequency:    3.2225058607
  - # 2
    frequency:    3.2225058607
  - # 3
    frequency:    5.1689624280
  - # 4
    frequency:    8.8430003257
  - # 5
    frequency:    8.8430003257
  - # 6
    frequency:    9.7423769773

- q-position: [    0.2800000,    0.0000000,    0.2800000 ]
  distance:    0.0856997
  band:
  - # 1
    frequency:    3.2004213721
  - # 2
    frequency:    3.2004213721
  - # 3
    frequency:    5.1229893624
  - # 4
    frequency:    8.8441133342
  - # 5
    frequency:    8.8441133342
  - # 6
    frequency:    9.7175260702

- q-position: [    0.2750000,    0.0000000,    0.2750000 ]
  distance:    0.0876474
  band:
  - # 1
    frequency:    3.1771972230
  - # 2
    frequency:    3.1771972230
  - # 3
    frequency:    5.0755902314
  - # 4
    frequency:    8.8434377720
  - # 5
    frequency:    8.8434377720
  - # 6
    frequency:    9.6909260762

- q-position: [    0.2700000,    0.0000000,    0.2700000 ]
  distance:    0.0895951
  band:
  - # 1
    frequency:    3.1528180538
  - # 2
    frequency:    3.1528180538
  - # 3
    frequency:    5.0267503983
  - # 4
    frequency:    8.8409439962
  - # 5
    frequency:    8.8409439962
  - # 6
    frequency:    9.6625685130

- q-position: [    0.2650000,    0.0000000,    0.2650000 ]
  distance:    0.0915428
  band:
  - # 1
    frequency:    3.1272691574
  - # 2
    frequency:    3.1272691574
  - # 3
    frequency:    4.9764551123
  - # 4
    frequency:    8.8366086294
  - # 5
    frequency:    8.8366086294
  - # 6
    frequency:    9.6324507502

- q-position: [    0.2600000,    0.0000000,    0.2600000 ]
  distance:    0.0934905
  band:
  - # 1
    frequency:    3.1005364448
  - # 2
    frequency:    3.1005364448
  - # 3
    frequency:    4.9246894719
  - # 4
    frequency:    8.8304146523
  - # 5
    frequency:    8.8304146523
  - # 6
    frequency:    9.6005761618

- q-position: [    0.2550000,    0.0000000,    0.2550000 ]
  distance:    0.0954382
  band:
  - # 1
    frequency:    3.0726064133
  - # 2
    frequency:    3.0726064133
  - # 3
    frequency:    4.8714383926
  - # 4
    frequency:    8.8223514822
  - # 5
    frequency:    8.8223514822
  - # 6
    frequency:    9.5669542630

- q-position: [    0.2500000,    0.0000000,    0.2500000 ]
  distance:    0.0973860
  band:
  - # 1
    frequency:    3.0434661177
  - # 2
    frequency:    3.0434661177
  - # 3
    frequency:    4.8166865767
  - # 4
    frequency:    8.8124150377
  - # 5
    frequency:    8.8124150377
  - # 6
    frequency:    9.5316008326

- q-position: [    0.2450000,    0.0000000,    0.2450000 ]
  distance:    0.0993337
  band:
  - # 1
    frequency:    3.0131031445
  - # 2
    frequency:    3.0131031445
  - # 3
    frequency:    4.7604184898
  - # 4
    frequency:    8.8006077900
  - # 5
    frequency:    8.8006077900
  - # 6
    frequency:    9.4945380198

- q-position: [    0.2400000,    0.0000000,    0.2400000 ]
  distance:    0.1012814
  band:
  - # 1
    frequency:    2.9815055902
  - # 2
    frequency:    2.9815055902
  - # 3
    frequency:    4.7026183416
  - # 4
    frequency:    8.7869388011
  - # 5
    frequency:    8.7869388011
  - # 6
    frequency:    9.4557944333

- q-position: [    0.2350000,    0.0000000,    0.2350000 ]
  distance:    0.1032291
  band:
  - # 1
    frequency:    2.9486620422
  - # 2
    frequency:    2.9486620422
  - # 3
    frequency:    4.6432700740
  - # 4
    frequency:    8.7714237476
  - # 5
    frequency:    8.7714237476
  - # 6
    frequency:    9.4154052138

- q-position: [    0.2300000,    0.0000000,    0.2300000 ]
  distance:    0.1051768
  band:
  - # 1
    frequency:    2.9145615649
  - # 2
    frequency:    2.9145615649
  - # 3
    frequency:    4.5823573576
  - # 4
    frequency:    8.7540849314
  - # 5
    frequency:    8.7540849314
  - # 6
    frequency:    9.3734120867

- q-position: [    0.2250000,    0.0000000,    0.2250000 ]
  distance:    0.1071246
  band:
  - # 1
    frequency:    2.8791936898
  - # 2
    frequency:    2.8791936898
  - # 3
    frequency:    4.5198635972
  - # 4
    frequency:    8.7349512756
  - # 5
    frequency:    8.7349512756
  - # 6
    frequency:    9.3298633951

- q-position: [    0.2200000,    0.0000000,    0.2200000 ]
  distance:    0.1090723
  band:
  - # 1
    frequency:    2.8425484110
  - # 2
    frequency:    2.8425484110
  - # 3
    frequency:    4.4557719476
  - # 4
    frequency:    8.7140583060
  - # 5
    frequency:    8.7140583060
  - # 6
    frequency:    9.2848141114

- q-position: [    0.2150000,    0.0000000,    0.2150000 ]
  distance:    0.1110200
  band:
  - # 1
    frequency:    2.8046161852
  - # 2
    frequency:    2.8046161852
  - # 3
    frequency:    4.3900653420
  - # 4
    frequency:    8.6914481174
  - # 5
    frequency:    8.6914481174
  - # 6
    frequency:    9.2383258256

- q-position: [    0.2100000,    0.0000000,    0.2100000 ]
  distance:    0.1129677
  band:
  - # 1
    frequency:    2.7653879393
  - # 2
    frequency:    2.7653879393
  - # 3
    frequency:    4.3227265338
  - # 4
    frequency:    8.6671693241
  - # 5
    frequency:    8.6671693241
  - # 6
    frequency:    9.1904667092

- q-position: [    0.2050000,    0.0000000,    0.2050000 ]
  distance:    0.1149154
  band:
  - # 1
    frequency:    2.7248550832
  - # 2
    frequency:    2.7248550832
  - # 3
    frequency:    4.2537381534
  - # 4
    frequency:    8.6412769928
  - # 5
    frequency:    8.6412769928
  - # 6
    frequency:    9.1413114528

- q-position: [    0.2000000,    0.0000000,    0.2000000 ]
  distance:    0.1168632
  band:
  - # 1
    frequency:    2.6830095309
  - # 2
    frequency:    2.6830095309
  - # 3
    frequency:    4.1830827813
  - # 4
    frequency:    8.6138325588
  - # 5
    frequency:    8.6138325588
  - # 6
    frequency:    9.0909411758

- q-position: [    0.1950000,    0.0000000,    0.1950000 ]
  distance:    0.1188109
  band:
  - # 1
    frequency:    2.6398437293
  - # 2
    frequency:    2.6398437293
  - # 3
    frequency:    4.1107430398
  - # 4
    frequency:    8.5849037231
  - # 5
    frequency:    8.5849037231
  - # 6
    frequency:    9.0394433064

- q-position: [    0.1900000,    0.0000000,    0.1900000 ]
  distance:    0.1207586
  band:
  - # 1
    frequency:    2.5953506956
  - # 2
    frequency:    2.5953506956
  - # 3
    frequency:    4.0367017034
  - # 4
    frequency:    8.5545643297
  - # 5
    frequency:    8.5545643297
  - # 6
    frequency:    8.9869114304

- q-position: [    0.1850000,    0.0000000,    0.1850000 ]
  distance:    0.1227063
  band:
  - # 1
    frequency:    2.5495240644
  - # 2
    frequency:    2.5495240644
  - # 3
    frequency:    3.9609418302
  - # 4
    frequency:    8.5228942218
  - # 5
    frequency:    8.5228942218
  - # 6
    frequency:    8.9334451068

- q-position: [    0.1800000,    0.0000000,    0.1800000 ]
  distance:    0.1246540
  band:
  - # 1
    frequency:    2.5023581446
  - # 2
    frequency:    2.5023581446
  - # 3
    frequency:    3.8834469153
  - # 4
    frequency:    8.4899790766
  - # 5
    frequency:    8.4899790766
  - # 6
    frequency:    8.8791496498

- q-position: [    0.1750000,    0.0000000,    0.1750000 ]
  distance:    0.1266018
  band:
  - # 1
    frequency:    2.4538479880
  - # 2
    frequency:    2.4538479880
  - # 3
    frequency:    3.8042010658
  - # 4
    frequency:    8.4559102159
  - # 5
    frequency:    8.4559102159
  - # 6
    frequency:    8.8241358745

- q-position: [    0.1700000,    0.0000000,    0.1700000 ]
  distance:    0.1285495
  band:
  - # 1
    frequency:    2.4039894677
  - # 2
    frequency:    2.4039894677
  - # 3
    frequency:    3.7231891995
  - # 4
    frequency:    8.4207843929
  - # 5
    frequency:    8.4207843929
  - # 6
    frequency:    8.7685198067

- q-position: [    0.1650000,    0.0000000,    0.1650000 ]
  distance:    0.1304972
  band:
  - # 1
    frequency:    2.3527793703
  - # 2
    frequency:    2.3527793703
  - # 3
    frequency:    3.6403972660
  - # 4
    frequency:    8.3847035533
  - # 5
    frequency:    8.3847035533
  - # 6
    frequency:    8.7124223558

- q-position: [    0.1600000,    0.0000000,    0.1600000 ]
  distance:    0.1324449
  band:
  - # 1
    frequency:    2.3002154988
  - # 2
    frequency:    2.3002154988
  - # 3
    frequency:    3.5558124908
  - # 4
    frequency:    8.3477745695
  - # 5
    frequency:    8.3477745695
  - # 6
    frequency:    8.6559689504

- q-position: [    0.1550000,    0.0000000,    0.1550000 ]
  distance:    0.1343926
  band:
  - # 1
    frequency:    2.2462967887
  - # 2
    frequency:    2.2462967887
  - # 3
    frequency:    3.4694236407
  - # 4
    frequency:    8.3101089475
  - # 5
    frequency:    8.3101089475
  - # 6
    frequency:    8.5992891375

- q-position: [    0.1500000,    0.0000000,    0.1500000 ]
  distance:    0.1363404
  band:
  - # 1
    frequency:    2.1910234371
  - # 2
    frequency:    2.1910234371
  - # 3
    frequency:    3.3812213097
  - # 4
    frequency:    8.2718225060
  - # 5
    frequency:    8.2718225060
  - # 6
    frequency:    8.5425161457

- q-position: [    0.1450000,    0.0000000,    0.1450000 ]
  distance:    0.1382881
  band:
  - # 1
    frequency:    2.1343970427
  - # 2
    frequency:    2.1343970427
  - # 3
    frequency:    3.2911982221
  - # 4
    frequency:    8.2330350252
  - # 5
    frequency:    8.2330350252
  - # 6
    frequency:    8.4857864150

- q-position: [    0.1400000,    0.0000000,    0.1400000 ]
  distance:    0.1402358
  band:
  - # 1
    frequency:    2.0764207589
  - # 2
    frequency:    2.0764207589
  - # 3
    frequency:    3.1993495518
  - # 4
    frequency:    8.1938698687
  - # 5
    frequency:    8.1938698687
  - # 6
    frequency:    8.4292390937

- q-position: [    0.1350000,    0.0000000,    0.1350000 ]
  distance:    0.1421835
  band:
  - # 1
    frequency:    2.0170994574
  - # 2
    frequency:    2.0170994574
  - # 3
    frequency:    3.1056732524
  - # 4
    frequency:    8.1544535742
  - # 5
    frequency:    8.1544535742
  - # 6
    frequency:    8.3730155070

- q-position: [    0.1300000,    0.0000000,    0.1300000 ]
  distance:    0.1441312
  band:
  - # 1
    frequency:    1.9564399011
  - # 2
    frequency:    1.9564399011
  - # 3
    frequency:    3.0101703955
  - # 4
    frequency:    8.1149154171
  - # 5
    frequency:    8.1149154171
  - # 6
    frequency:    8.3172585997

- q-position: [    0.1250000,    0.0000000,    0.1250000 ]
  distance:    0.1460789
  band:
  - # 1
    frequency:    1.8944509262
  - # 2
    frequency:    1.8944509262
  - # 3
    frequency:    2.9128455121
  - # 4
    frequency:    8.0753869456
  - # 5
    frequency:    8.0753869456
  - # 6
    frequency:    8.2621123577

- q-position: [    0.1200000,    0.0000000,    0.1200000 ]
  distance:    0.1480267
  band:
  - # 1
    frequency:    1.8311436298
  - # 2
    frequency:    1.8311436298
  - # 3
    frequency:    2.8137069313
  - # 4
    frequency:    8.0360014888
  - # 5
    frequency:    8.0360014888
  - # 6
    frequency:    8.2077212127

- q-position: [    0.1150000,    0.0000000,    0.1150000 ]
  distance:    0.1499744
  band:
  - # 1
    frequency:    1.7665315622
  - # 2
    frequency:    1.7665315622
  - # 3
    frequency:    2.7127671118
  - # 4
    frequency:    7.9968936405
  - # 5
    frequency:    7.9968936405
  - # 6
    frequency:    8.1542294349

- q-position: [    0.1100000,    0.0000000,    0.1100000 ]
  distance:    0.1519221
  band:
  - # 1
    frequency:    1.7006309201
  - # 2
    frequency:    1.7006309201
  - # 3
    frequency:    2.6100429596
  - # 4
    frequency:    7.9581987193
  - # 5
    frequency:    7.9581987193
  - # 6
    frequency:    8.1017805201

- q-position: [    0.1050000,    0.0000000,    0.1050000 ]
  distance:    0.1538698
  band:
  - # 1
    frequency:    1.6334607380
  - # 2
    frequency:    1.6334607380
  - # 3
    frequency:    2.5055561261
  - # 4
    frequency:    7.9200522087
  - # 5
    frequency:    7.9200522087
  - # 6
    frequency:    8.0505165755

- q-position: [    0.1000000,    0.0000000,    0.1000000 ]
  distance:    0.1558175
  band:
  - # 1
    frequency:    1.5650430754
  - # 2
    frequency:    1.5650430754
  - # 3
    frequency:    2.3993332805
  - # 4
    frequency:    7.8825891790
  - # 5
    frequency:    7.8825891790
  - # 6
    frequency:    8.0005777119

- q-position: [    0.0950000,    0.0000000,    0.0950000 ]
  distance:    0.1577653
  band:
  - # 1
    frequency:    1.4954031937
  - # 2
    frequency:    1.4954031937
  - # 3
    frequency:    2.2914063512
  - # 4
    frequency:    7.8459436962
  - # 5
    frequency:    7.8459436962
  - # 6
    frequency:    7.9521014448

- q-position: [    0.0900000,    0.0000000,    0.0900000 ]
  distance:    0.1597130
  band:
  - # 1
    frequency:    1.4245697216
  - # 2
    frequency:    1.4245697216
  - # 3
    frequency:    2.1818127303
  - # 4
    frequency:    7.8102482195
  - # 5
    frequency:    7.8102482195
  - # 6
    frequency:    7.9052221141

- q-position: [    0.0850000,    0.0000000,    0.0850000 ]
  distance:    0.1616607
  band:
  - # 1
    frequency:    1.3525748029
  - # 2
    frequency:    1.3525748029
  - # 3
    frequency:    2.0705954359
  - # 4
    frequency:    7.7756329930
  - # 5
    frequency:    7.7756329930
  - # 6
    frequency:    7.8600703226

- q-position: [    0.0800000,    0.0000000,    0.0800000 ]
  distance:    0.1636084
  band:
  - # 1
    frequency:    1.2794542235
  - # 2
    frequency:    1.2794542235
  - # 3
    frequency:    1.9578032294
  - # 4
    frequency:    7.7422254356
  - # 5
    frequency:    7.7422254356
  - # 6
    frequency:    7.8167724022

- q-position: [    0.0750000,    0.0000000,    0.0750000 ]
  distance:    0.1655561
  band:
  - # 1
    frequency:    1.2052475138
  - # 2
    frequency:    1.2052475138
  - # 3
    frequency:    1.8434906825
  - # 4
    frequency:    7.7101495331
  - # 5
    frequency:    7.7101495331
  - # 6
    frequency:    7.7754499075

- q-position: [    0.0700000,    0.0000000,    0.0700000 ]
  distance:    0.1675039
  band:
  - # 1
    frequency:    1.1299980214
  - # 2
    frequency:    1.1299980214
  - # 3
    frequency:    1.7277181928
  - # 4
    frequency:    7.6795252381
  - # 5
    frequency:    7.6795252381
  - # 6
    frequency:    7.7362191439

- q-position: [    0.0650000,    0.0000000,    0.0650000 ]
  distance:    0.1694516
  band:
  - # 1
    frequency:    1.0537529520
  - # 2
    frequency:    1.0537529520
  - # 3
    frequency:    1.6105519452
  - # 4
    frequency:    7.6504678814
  - # 5
    frequency:    7.6504678814
  - # 6
    frequency:    7.6991907284

- q-position: [    0.0600000,    0.0000000,    0.0600000 ]
  distance:    0.1713993
  band:
  - # 1
    frequency:    0.9765633737
  - # 2
    frequency:    0.9765633737
  - # 3
    frequency:    1.4920638198
  - # 4
    frequency:    7.6230876001
  - # 5
    frequency:    7.6230876001
  - # 6
    frequency:    7.6644691885
