natom:   16
displacements:
- atom:    1
  direction:
    [   1.0000000000000000,  0.0000000000000000,  0.0000000000000000 ]
  displacement:
    [   0.0000000000000000,  0.3535533905932738,  0.3535533905932738 ]
- atom:    9
  direction:
    [   1.0000000000000000,  0.0000000000000000,  0.0000000000000000 ]
  displacement:
    [   0.0000000000000000,  0.3535533905932738,  0.3535533905932738 ]
lattice:
- [     0.0000000000000000,     5.1342099802360490,     5.1342099802360490 ] # a
- [     5.1342099802360490,     0.0000000000000000,     5.1342099802360490 ] # b
- [     5.1342099802360490,     5.1342099802360490,     0.0000000000000000 ] # c
atoms:
- symbol: Sr # 1
  position: [  0.0000000000000000,  0.0000000000000000,  0.0000000000000000 ]
  mass: 87.620000
- symbol: Sr # 2
  position: [  0.5000000000000000,  0.0000000000000000,  0.0000000000000000 ]
  mass: 87.620000
- symbol: Sr # 3
  position: [  0.0000000000000000,  0.5000000000000000,  0.0000000000000000 ]
  mass: 87.620000
- symbol: Sr # 4
  position: [  0.5000000000000000,  0.5000000000000000,  0.0000000000000000 ]
  mass: 87.620000
- symbol: Sr # 5
  position: [  0.0000000000000000,  0.0000000000000000,  0.5000000000000000 ]
  mass: 87.620000
- symbol: Sr # 6
  position: [  0.5000000000000000,  0.0000000000000000,  0.5000000000000000 ]
  mass: 87.620000
- symbol: Sr # 7
  position: [  0.0000000000000000,  0.5000000000000000,  0.5000000000000000 ]
  mass: 87.620000
- symbol: Sr # 8
  position: [  0.5000000000000000,  0.5000000000000000,  0.5000000000000000 ]
  mass: 87.620000
- symbol: O  # 9
  position: [  0.2500000000000000,  0.2500000000000000,  0.2500000000000000 ]
  mass: 15.999400
- symbol: O  # 10
  position: [  0.7500000000000000,  0.2500000000000000,  0.2500000000000000 ]
  mass: 15.999400
- symbol: O  # 11
  position: [  0.2500000000000000,  0.7500000000000000,  0.2500000000000000 ]
  mass: 15.999400
- symbol: O  # 12
  position: [  0.7500000000000000,  0.7500000000000000,  0.2500000000000000 ]
  mass: 15.999400
- symbol: O  # 13
  position: [  0.2500000000000000,  0.2500000000000000,  0.7500000000000000 ]
  mass: 15.999400
- symbol: O  # 14
  position: [  0.7500000000000000,  0.2500000000000000,  0.7500000000000000 ]
  mass: 15.999400
- symbol: O  # 15
  position: [  0.2500000000000000,  0.7500000000000000,  0.7500000000000000 ]
  mass: 15.999400
- symbol: O  # 16
  position: [  0.7500000000000000,  0.7500000000000000,  0.7500000000000000 ]
  mass: 15.999400