16   
2    

1    
  0.0000000000000000   0.3535533905932738   0.3535533905932738
  -0.0000000000   -2.8962325500   -2.8962325500
  -0.0000000000    1.2651162900    1.2651162900
   0.7360291200   -0.1322619800    0.4017626300
  -0.7360291200    0.4017626300   -0.1322619800
   0.7360291200    0.4017626300   -0.1322619800
  -0.7360291200   -0.1322619800    0.4017626300
  -0.0000000000   -0.3083763600   -0.3083763600
  -0.0000000000    0.2687316000    0.2687316000
  -0.0804390700   -0.0803677100   -0.0803677100
   0.0037075100    0.1599867800    0.1599867800
  -0.0000000000    1.1710449800   -0.0083423500
  -0.0000000000    0.0797018700   -0.2698829100
  -0.0000000000   -0.0083423500    1.1710449800
  -0.0000000000   -0.2698829100    0.0797018700
  -0.0037075100    0.1599867800    0.1599867800
   0.0804390700   -0.0803677100   -0.0803677100

9    
  0.0000000000000000   0.3535533905932738   0.3535533905932738
   0.0503054300   -0.0712655100   -0.0712655100
  -0.0423698900    0.1573273200    0.1573273200
   0.0000000000   -0.2802742500    0.1019602800
   0.0000000000    0.0250179100    1.0255239000
   0.0000000000    0.1019602800   -0.2802742500
   0.0000000000    1.0255239000    0.0250179100
   0.0423698900    0.1573273200    0.1573273200
  -0.0503054300   -0.0712655100   -0.0712655100
   0.0000000000   -2.0507031300   -2.0507031300
   0.0000000000    0.5310100400    0.5310100400
   0.3480847600   -0.0597201500    0.1405473400
  -0.3480847600    0.1405473400   -0.0597201500
   0.3480847600    0.1405473400   -0.0597201500
  -0.3480847600   -0.0597201500    0.1405473400
   0.0000000000   -0.2131407300   -0.2131407300
  -0.0000000000    0.5268279900    0.5268279900
