 vasp.5.4.1 24Jun15 (build Nov 12 2015 13:14:48) complex                        
  
 executed on             IFC_2016 date 2017.02.27  15:33:22
 running on   16 total cores
 distrk:  each k-point on   16 cores,    1 groups
 distr:  one band on NCORES_PER_BAND=   8 cores,    2 groups


--------------------------------------------------------------------------------------------------------


 INCAR:
 POTCAR:    PAW_PBE Sr_sv 07Sep2000               
 POTCAR:    PAW_PBE O 08Apr2002                   
 POTCAR:    PAW_PBE Sr_sv 07Sep2000               
   VRHFIN =Sr: 4s4p5s                                                           
   LEXCH  = PE                                                                  
   EATOM  =   843.0319 eV,   61.9611 Ry                                         
                                                                                
   TITEL  = PAW_PBE Sr_sv 07Sep2000                                             
   LULTRA =        F    use ultrasoft PP ?                                      
   IUNSCR =        1    unscreen: 0-lin 1-nonlin 2-no                           
   RPACOR =    2.200    partial core radius                                     
   POMASS =   87.620; ZVAL   =   10.000    mass and valenz                      
   RCORE  =    2.500    outmost cutoff radius                                   
   RWIGS  =    4.040; RWIGS  =    2.138    wigner-seitz radius (au A)           
   ENMAX  =  229.353; ENMIN  =  172.014 eV                                      
   RCLOC  =    2.201    cutoff for local pot                                    
   LCOR   =        T    correct aug charges                                     
   LPAW   =        T    paw PP                                                  
   EAUG   =  366.804                                                            
   DEXC   =    0.000                                                            
   RMAX   =    2.547    core radius for proj-oper                               
   RAUG   =    1.300    factor for augmentation sphere                          
   RDEP   =    2.562    radius for radial grids                                 
   RDEPT  =    2.128    core radius for aug-charge                              
                                                                                
   Atomic configuration                                                         
   10 entries                                                                   
     n  l   j            E        occ.                                          
     1  0  0.50    -15934.8930   2.0000                                         
     2  0  0.50     -2157.6250   2.0000                                         
     2  1  1.50     -1917.0034   6.0000                                         
     3  0  0.50      -333.7288   2.0000                                         
     3  1  1.50      -256.0992   6.0000                                         
     3  2  2.50      -127.9971  10.0000                                         
     4  0  0.50       -40.8953   2.0000                                         
     5  0  0.50        -3.5257   1.9990                                         
     4  1  1.50       -22.8179   6.0000                                         
     4  2  1.50        -1.2815   0.0010                                         
   Description                                                                  
     l       E           TYP  RCUT    TYP  RCUT                                 
     0    -40.8953213     23  2.480                                             
     0     -3.5257161     23  2.480                                             
     1    -22.8178632     23  2.500                                             
     1    -24.1784458     23  2.500                                             
     2     -1.2814598     23  2.500                                             
     2      0.2279365     23  2.500                                             
  local pseudopotential read in
  partial core-charges read in
  partial kinetic energy density read in
  atomic valenz-charges read in
  non local Contribution for L=           0  read in
    real space projection operators read in
  non local Contribution for L=           0  read in
    real space projection operators read in
  non local Contribution for L=           1  read in
    real space projection operators read in
  non local Contribution for L=           1  read in
    real space projection operators read in
  non local Contribution for L=           2  read in
    real space projection operators read in
  non local Contribution for L=           2  read in
    real space projection operators read in
    PAW grid and wavefunctions read in
 
   number of l-projection  operators is LMAX  =           6
   number of lm-projection operators is LMMAX =          18
 
 POTCAR:    PAW_PBE O 08Apr2002                   
   VRHFIN =O: s2p4                                                              
   LEXCH  = PE                                                                  
   EATOM  =   432.3788 eV,   31.7789 Ry                                         
                                                                                
   TITEL  = PAW_PBE O 08Apr2002                                                 
   LULTRA =        F    use ultrasoft PP ?                                      
   IUNSCR =        1    unscreen: 0-lin 1-nonlin 2-no                           
   RPACOR =    1.200    partial core radius                                     
   POMASS =   16.000; ZVAL   =    6.000    mass and valenz                      
   RCORE  =    1.520    outmost cutoff radius                                   
   RWIGS  =    1.550; RWIGS  =    0.820    wigner-seitz radius (au A)           
   ENMAX  =  400.000; ENMIN  =  300.000 eV                                      
   ICORE  =        2    local potential                                         
   LCOR   =        T    correct aug charges                                     
   LPAW   =        T    paw PP                                                  
   EAUG   =  605.392                                                            
   DEXC   =    0.000                                                            
   RMAX   =    1.553    core radius for proj-oper                               
   RAUG   =    1.300    factor for augmentation sphere                          
   RDEP   =    1.550    radius for radial grids                                 
   RDEPT  =    1.329    core radius for aug-charge                              
                                                                                
   Atomic configuration                                                         
    4 entries                                                                   
     n  l   j            E        occ.                                          
     1  0  0.50      -514.6923   2.0000                                         
     2  0  0.50       -23.9615   2.0000                                         
     2  1  0.50        -9.0305   4.0000                                         
     3  2  1.50        -9.5241   0.0000                                         
   Description                                                                  
     l       E           TYP  RCUT    TYP  RCUT                                 
     0    -23.9615318     23  1.200                                             
     0     -9.5240782     23  1.200                                             
     1     -9.0304911     23  1.520                                             
     1      8.1634956     23  1.520                                             
     2     -9.5240782      7  1.500                                             
  local pseudopotential read in
  partial core-charges read in
  partial kinetic energy density read in
  kinetic energy density of atom read in
  atomic valenz-charges read in
  non local Contribution for L=           0  read in
    real space projection operators read in
  non local Contribution for L=           0  read in
    real space projection operators read in
  non local Contribution for L=           1  read in
    real space projection operators read in
  non local Contribution for L=           1  read in
    real space projection operators read in
    PAW grid and wavefunctions read in
 
   number of l-projection  operators is LMAX  =           4
   number of lm-projection operators is LMMAX =           8
 

 ----------------------------------------------------------------------------- 
|                                                                             |
|  ADVICE TO THIS USER RUNNING 'VASP/VAMP'   (HEAR YOUR MASTER'S VOICE ...):  |
|                                                                             |
|      You enforced a specific xc-type in the INCAR file,                     |
|      a different type was found on the POTCAR file                          |
|          I HOPE YOU KNOW, WHAT YOU ARE  DOING                               |
|                                                                             |
 ----------------------------------------------------------------------------- 

  PAW_PBE Sr_sv 07Sep2000               :
 energy of atom  1       EATOM= -843.0319
 kinetic energy error for atom=    0.0002 (will be added to EATOM!!)
  PAW_PBE O 08Apr2002                   :
 energy of atom  2       EATOM= -432.3788
 kinetic energy error for atom=    0.0041 (will be added to EATOM!!)
 
 
 POSCAR: Sr O                                    
  positions in direct lattice
  No initial velocities read in
 exchange correlation table for  LEXCH =       14
   RHO(1)=    0.500       N(1)  =     2000
   RHO(2)=  100.500       N(2)  =     4000
 


--------------------------------------------------------------------------------------------------------


 ion  position               nearest neighbor table
   1  0.000  0.000  0.000-  10 2.57  11 2.57  12 2.57  13 2.57  14 2.57  15 2.57   2 3.63   3 3.63
                             5 3.63   5 3.63   6 3.63   7 3.63   3 3.63   4 3.63   7 3.63   2 3.63
   2  0.500  0.000  0.000-  11 2.57  12 2.57  13 2.57  14 2.57  16 2.57   9 2.62   1 3.63   4 3.63
                             6 3.63   5 3.63   6 3.63   8 3.63   3 3.63   4 3.63   8 3.63   1 3.63
   3  0.000  0.500  0.000-  10 2.57  12 2.57  13 2.57  15 2.57  16 2.57   9 2.94   1 3.63   4 3.63
                             7 3.63   5 3.63   7 3.63   8 3.63   1 3.63   2 3.63   5 3.63   2 3.63
   4  0.500  0.500  0.000-   9 2.24  10 2.57  11 2.57  14 2.57  15 2.57  16 2.57   2 3.63   3 3.63
                             8 3.63   6 3.63   7 3.63   8 3.63   1 3.63   2 3.63   6 3.63   1 3.63
   5  0.000  0.000  0.500-  10 2.57  11 2.57  14 2.57  15 2.57  16 2.57   9 2.94   1 3.63   6 3.63
                             7 3.63   1 3.63   2 3.63   3 3.63   3 3.63   7 3.63   8 3.63   2 3.63
   6  0.500  0.000  0.500-   9 2.24  10 2.57  12 2.57  13 2.57  15 2.57  16 2.57   2 3.63   5 3.63
                             8 3.63   1 3.63   2 3.63   4 3.63   4 3.63   7 3.63   8 3.63   1 3.63
   7  0.000  0.500  0.500-  11 2.57  12 2.57  13 2.57  14 2.57  16 2.57   9 2.62   3 3.63   5 3.63
                             8 3.63   1 3.63   3 3.63   4 3.63   1 3.63   5 3.63   6 3.63   4 3.63
   8  0.500  0.500  0.500-  10 2.57  11 2.57  12 2.57  13 2.57  14 2.57  15 2.57   4 3.63   6 3.63
                             7 3.63   2 3.63   3 3.63   4 3.63   2 3.63   5 3.63   6 3.63   3 3.63
   9  0.319  0.250  0.250-   4 2.24   6 2.24   2 2.62   7 2.62   3 2.94   5 2.94
  10  0.750  0.250  0.250-   1 2.57   3 2.57   4 2.57   5 2.57   6 2.57   8 2.57
  11  0.250  0.750  0.250-   1 2.57   2 2.57   4 2.57   5 2.57   7 2.57   8 2.57
  12  0.750  0.750  0.250-   1 2.57   2 2.57   3 2.57   6 2.57   7 2.57   8 2.57
  13  0.250  0.250  0.750-   1 2.57   2 2.57   3 2.57   6 2.57   7 2.57   8 2.57
  14  0.750  0.250  0.750-   1 2.57   2 2.57   4 2.57   5 2.57   7 2.57   8 2.57
  15  0.250  0.750  0.750-   1 2.57   3 2.57   4 2.57   5 2.57   6 2.57   8 2.57
  16  0.750  0.750  0.750-   2 2.57   3 2.57   4 2.57   5 2.57   6 2.57   7 2.57
 
  LATTYP: Found a face centered cubic cell.
 ALAT       =    10.2684199605
  
  Lattice vectors:
  
 A1 = (   0.0000000000,   5.1342099802,   5.1342099802)
 A2 = (   5.1342099802,   0.0000000000,   5.1342099802)
 A3 = (   5.1342099802,   5.1342099802,   0.0000000000)


Analysis of symmetry for initial positions (statically):
=====================================================================
 Subroutine PRICEL returns:
 Original cell was already a primitive cell.
 

 Routine SETGRP: Setting up the symmetry group for a 
 face centered cubic supercell.


 Subroutine GETGRP returns: Found  4 space group operations
 (whereof  2 operations were pure point group operations)
 out of a pool of 48 trial point group operations.


The static configuration has the point symmetry C_1h.
 The point group associated with its full space group is C_2v.


Analysis of symmetry for dynamics (positions and initial velocities):
=====================================================================
 Subroutine PRICEL returns:
 Original cell was already a primitive cell.
 

 Routine SETGRP: Setting up the symmetry group for a 
 face centered cubic supercell.


 Subroutine GETGRP returns: Found  4 space group operations
 (whereof  2 operations were pure point group operations)
 out of a pool of 48 trial point group operations.


The dynamic configuration has the point symmetry C_1h.
 The point group associated with its full space group is C_2v.


 Subroutine INISYM returns: Found  4 space group operations
 (whereof  2 operations are pure point group operations),
 and found     1 'primitive' translations

 
 
 KPOINTS: Automatic 4x4x4                         

Automatic generation of k-mesh.
Space group operators:
 irot       det(A)        alpha          n_x          n_y          n_z        tau_x        tau_y        tau_z
    1     1.000000     0.000001     1.000000     0.000000     0.000000     0.000000     0.000000     0.000000
    2    -1.000000   180.000000     0.000000    -0.707107     0.707107     0.000000     0.000000     0.000000
    3     1.000000   180.000000     0.000000     0.707107     0.707107     0.500000     0.500000     0.500000
    4    -1.000000   180.000000     1.000000     0.000000     0.000000     0.500000     0.500000     0.500000
 
 Subroutine IBZKPT returns following result:
 ===========================================
 
 Found     18 irreducible k-points:
 
 Following reciprocal coordinates:
            Coordinates               Weight
  0.000000  0.000000  0.000000      1.000000
  0.250000  0.000000  0.000000      4.000000
  0.500000  0.000000  0.000000      2.000000
  0.000000  0.250000  0.000000      4.000000
  0.250000  0.250000  0.000000      4.000000
  0.500000  0.250000  0.000000      8.000000
 -0.250000  0.250000  0.000000      8.000000
  0.000000  0.500000  0.000000      2.000000
  0.250000  0.500000  0.000000      8.000000
  0.500000  0.500000  0.000000      2.000000
  0.000000  0.250000  0.250000      2.000000
  0.500000  0.250000  0.250000      2.000000
 -0.250000  0.250000  0.250000      4.000000
  0.000000  0.500000  0.250000      4.000000
 -0.250000  0.500000  0.250000      4.000000
  0.000000 -0.250000  0.250000      2.000000
  0.500000 -0.250000  0.250000      2.000000
  0.000000  0.500000  0.500000      1.000000
 
 Following cartesian coordinates:
            Coordinates               Weight
  0.000000  0.000000  0.000000      1.000000
 -0.024346  0.024346  0.024346      4.000000
 -0.048693  0.048693  0.048693      2.000000
  0.024346 -0.024346  0.024346      4.000000
  0.000000  0.000000  0.048693      4.000000
 -0.024346  0.024346  0.073039      8.000000
  0.048693 -0.048693  0.000000      8.000000
  0.048693 -0.048693  0.048693      2.000000
  0.024346 -0.024346  0.073039      8.000000
  0.000000  0.000000  0.097386      2.000000
  0.048693  0.000000  0.000000      2.000000
  0.000000  0.048693  0.048693      2.000000
  0.073039 -0.024346 -0.024346      4.000000
  0.073039 -0.024346  0.024346      4.000000
  0.097386 -0.048693 -0.000000      4.000000
  0.000000  0.048693 -0.048693      2.000000
 -0.048693  0.097386 -0.000000      2.000000
  0.097386  0.000000  0.000000      1.000000
 


--------------------------------------------------------------------------------------------------------




 Dimension of arrays:
   k-points           NKPTS =     18   k-points in BZ     NKDIM =     18   number of bands    NBANDS=     76
   number of dos      NEDOS =    301   number of ions     NIONS =     16
   non local maximal  LDIM  =      6   non local SUM 2l+1 LMDIM =     18
   total plane-waves  NPLWV = 343000
   max r-space proj   IRMAX =      1   max aug-charges    IRDMAX= 594561
   dimension x,y,z NGX =    70 NGY =   70 NGZ =   70
   dimension x,y,z NGXF=   140 NGYF=  140 NGZF=  140
   support grid    NGXF=   280 NGYF=  280 NGZF=  280
   ions per type =               8   8
 NGX,Y,Z   is equivalent  to a cutoff of  16.03, 16.03, 16.03 a.u.
 NGXF,Y,Z  is equivalent  to a cutoff of  32.05, 32.05, 32.05 a.u.


 I would recommend the setting:
   dimension x,y,z NGX =    67 NGY =   67 NGZ =   67
 SYSTEM =  SrO                                     
 POSCAR =  Sr O                                    

 Startparameter for this run:
   NWRITE =      2    write-flag & timer
   PREC   = accura    normal or accurate (medium, high low for compatibility)
   ISTART =      0    job   : 0-new  1-cont  2-samecut
   ICHARG =      2    charge: 1-file 2-atom 10-const
   ISPIN  =      1    spin polarized calculation?
   LNONCOLLINEAR =      F non collinear calculations
   LSORBIT =      F    spin-orbit coupling
   INIWAV =      1    electr: 0-lowe 1-rand  2-diag
   LASPH  =      T    aspherical Exc in radial PAW
   METAGGA=      F    non-selfconsistent MetaGGA calc.

 Electronic Relaxation 1
   ENCUT  =  800.0 eV  58.80 Ry    7.67 a.u.  16.75 16.75 16.75*2*pi/ulx,y,z
   ENINI  =  800.0     initial cutoff
   ENAUG  =  605.4 eV  augmentation charge cutoff
   NELM   =     60;   NELMIN=  2; NELMDL= -5     # of ELM steps 
   EDIFF  = 0.1E-07   stopping-criterion for ELM
   LREAL  =      F    real-space projection
   NLSPLINE    = F    spline interpolate recip. space projectors
   LCOMPAT=      F    compatible to vasp.4.4
   GGA_COMPAT  = T    GGA compatible to vasp.4.4-vasp.4.6
   LMAXPAW     = -100 max onsite density
   LMAXMIX     =    2 max onsite mixed and CHGCAR
   VOSKOWN=      0    Vosko Wilk Nusair interpolation
   ROPT   =    0.00000   0.00000
 Ionic relaxation
   EDIFFG = 0.1E-06   stopping-criterion for IOM
   NSW    =      0    number of steps for IOM
   NBLOCK =      1;   KBLOCK =      1    inner block; outer block 
   IBRION =     -1    ionic relax: 0-MD 1-quasi-New 2-CG
   NFREE  =      0    steps in history (QN), initial steepest desc. (CG)
   ISIF   =      2    stress and relaxation
   IWAVPR =     10    prediction:  0-non 1-charg 2-wave 3-comb
   ISYM   =      2    0-nonsym 1-usesym 2-fastsym
   LCORR  =      T    Harris-Foulkes like correction to forces

   POTIM  = 0.5000    time-step for ionic-motion
   TEIN   =    0.0    initial temperature
   TEBEG  =    0.0;   TEEND  =   0.0 temperature during run
   SMASS  =  -3.00    Nose mass-parameter (am)
   estimated Nose-frequenzy (Omega)   =  0.10E-29 period in steps =****** mass=  -0.120E-26a.u.
   SCALEE = 1.0000    scale energy and forces
   NPACO  =    256;   APACO  = 16.0  distance and # of slots for P.C.
   PSTRESS=    0.0 pullay stress

  Mass of Ions in am
   POMASS =  87.62 16.00
  Ionic Valenz
   ZVAL   =  10.00  6.00
  Atomic Wigner-Seitz radii
   RWIGS  =  -1.00 -1.00
  virtual crystal weights 
   VCA    =   1.00  1.00
   NELECT =     128.0000    total number of electrons
   NUPDOWN=      -1.0000    fix difference up-down

 DOS related values:
   EMIN   =  10.00;   EMAX   =-10.00  energy-range for DOS
   EFERMI =   0.00
   ISMEAR =     0;   SIGMA  =   0.01  broadening in eV -4-tet -1-fermi 0-gaus

 Electronic relaxation 2 (details)
   IALGO  =     38    algorithm
   LDIAG  =      T    sub-space diagonalisation (order eigenvalues)
   LSUBROT=      F    optimize rotation matrix (better conditioning)
   TURBO    =      0    0=normal 1=particle mesh
   IRESTART =      0    0=no restart 2=restart with 2 vectors
   NREBOOT  =      0    no. of reboots
   NMIN     =      0    reboot dimension
   EREF     =   0.00    reference energy to select bands
   IMIX   =      4    mixing-type and parameters
     AMIX     =   0.40;   BMIX     =  1.00
     AMIX_MAG =   1.60;   BMIX_MAG =  1.00
     AMIN     =   0.10
     WC   =   100.;   INIMIX=   1;  MIXPRE=   1;  MAXMIX= -45

 Intra band minimization:
   WEIMIN = 0.0000     energy-eigenvalue tresh-hold
   EBREAK =  0.33E-10  absolut break condition
   DEPER  =   0.30     relativ break condition  

   TIME   =   0.40     timestep for ELM

  volume/ion in A,a.u.               =      16.92       114.16
  Fermi-wavevector in a.u.,A,eV,Ry     =   1.275443  2.410239 22.133358  1.626756
  Thomas-Fermi vector in A             =   2.408155
 
 Write flags
   LWAVE  =      F    write WAVECAR
   LCHARG =      F    write CHGCAR
   LVTOT  =      F    write LOCPOT, total local potential
   LVHAR  =      F    write LOCPOT, Hartree potential only
   LELF   =      F    write electronic localiz. function (ELF)
   LORBIT =      0    0 simple, 1 ext, 2 COOP (PROOUT)


 Dipole corrections
   LMONO  =      F    monopole corrections only (constant potential shift)
   LDIPOL =      F    correct potential (dipole corrections)
   IDIPOL =      0    1-x, 2-y, 3-z, 4-all directions 
   EPSILON=  1.0000000 bulk dielectric constant

 Exchange correlation treatment:
   GGA     =    PS    GGA type
   LEXCH   =    14    internal setting for exchange type
   VOSKOWN=      0    Vosko Wilk Nusair interpolation
   LHFCALC =     F    Hartree Fock is set to
   LHFONE  =     F    Hartree Fock one center treatment
   AEXX    =    0.0000 exact exchange contribution

 Linear response parameters
   LEPSILON=     F    determine dielectric tensor
   LRPA    =     F    only Hartree local field effects (RPA)
   LNABLA  =     F    use nabla operator in PAW spheres
   LVEL    =     F    velocity operator in full k-point grid
   LINTERFAST=   F  fast interpolation
   KINTER  =     0    interpolate to denser k-point grid
   CSHIFT  =0.1000    complex shift for real part using Kramers Kronig
   OMEGAMAX=  -1.0    maximum frequency
   DEG_THRESHOLD= 0.2000000E-02 threshold for treating states as degnerate
   RTIME   =    0.100 relaxation time in fs

 Orbital magnetization related:
   ORBITALMAG=     F  switch on orbital magnetization
   LCHIMAG   =     F  perturbation theory with respect to B field
   DQ        =  0.001000  dq finite difference perturbation B field



--------------------------------------------------------------------------------------------------------


 Static calculation
 charge density and potential will be updated during run
 non-spin polarized calculation
 Variant of blocked Davidson
 Davidson routine will perform the subspace rotation
 perform sub-space diagonalisation
    after iterative eigenvector-optimisation
 modified Broyden-mixing scheme, WC =      100.0
 initial mixing is a Kerker type mixing with AMIX =  0.4000 and BMIX =      1.0000
 Hartree-type preconditioning will be used
 using additional bands           12
 reciprocal scheme for non local part
 use partial core corrections
 calculate Harris-corrections to forces 
   (improved forces if not selfconsistent)
 use gradient corrections 
 use of overlap-Matrix (Vanderbilt PP)
 Gauss-broadening in eV      SIGMA  =   0.01


--------------------------------------------------------------------------------------------------------


  energy-cutoff  :      800.00
  volume of cell :      270.68
      direct lattice vectors                 reciprocal lattice vectors
     0.000000000  5.134209980  5.134209980    -0.097385966  0.097385966  0.097385966
     5.134209980  0.000000000  5.134209980     0.097385966 -0.097385966  0.097385966
     5.134209980  5.134209980  0.000000000     0.097385966  0.097385966 -0.097385966

  length of vectors
     7.260869386  7.260869386  7.260869386     0.168677442  0.168677442  0.168677442


 
 k-points in units of 2pi/SCALE and weight: Automatic 4x4x4                         
   0.00000000  0.00000000  0.00000000       0.016
  -0.02434649  0.02434649  0.02434649       0.062
  -0.04869298  0.04869298  0.04869298       0.031
   0.02434649 -0.02434649  0.02434649       0.062
   0.00000000  0.00000000  0.04869298       0.062
  -0.02434649  0.02434649  0.07303947       0.125
   0.04869298 -0.04869298  0.00000000       0.125
   0.04869298 -0.04869298  0.04869298       0.031
   0.02434649 -0.02434649  0.07303947       0.125
   0.00000000  0.00000000  0.09738597       0.031
   0.04869298  0.00000000  0.00000000       0.031
   0.00000000  0.04869298  0.04869298       0.031
   0.07303947 -0.02434649 -0.02434649       0.062
   0.07303947 -0.02434649  0.02434649       0.062
   0.09738597 -0.04869298 -0.00000000       0.062
   0.00000000  0.04869298 -0.04869298       0.031
  -0.04869298  0.09738597 -0.00000000       0.031
   0.09738597  0.00000000  0.00000000       0.016
 
 k-points in reciprocal lattice and weights: Automatic 4x4x4                         
   0.00000000  0.00000000  0.00000000       0.016
   0.25000000  0.00000000  0.00000000       0.062
   0.50000000  0.00000000  0.00000000       0.031
   0.00000000  0.25000000  0.00000000       0.062
   0.25000000  0.25000000  0.00000000       0.062
   0.50000000  0.25000000  0.00000000       0.125
  -0.25000000  0.25000000  0.00000000       0.125
   0.00000000  0.50000000  0.00000000       0.031
   0.25000000  0.50000000  0.00000000       0.125
   0.50000000  0.50000000  0.00000000       0.031
   0.00000000  0.25000000  0.25000000       0.031
   0.50000000  0.25000000  0.25000000       0.031
  -0.25000000  0.25000000  0.25000000       0.062
   0.00000000  0.50000000  0.25000000       0.062
  -0.25000000  0.50000000  0.25000000       0.062
   0.00000000 -0.25000000  0.25000000       0.031
   0.50000000 -0.25000000  0.25000000       0.031
   0.00000000  0.50000000  0.50000000       0.016
 
 position of ions in fractional coordinates (direct lattice) 
   0.00000000  0.00000000  0.00000000
   0.50000000  0.00000000  0.00000000
   0.00000000  0.50000000  0.00000000
   0.50000000  0.50000000  0.00000000
   0.00000000  0.00000000  0.50000000
   0.50000000  0.00000000  0.50000000
   0.00000000  0.50000000  0.50000000
   0.50000000  0.50000000  0.50000000
   0.31886228  0.25000000  0.25000000
   0.75000000  0.25000000  0.25000000
   0.25000000  0.75000000  0.25000000
   0.75000000  0.75000000  0.25000000
   0.25000000  0.25000000  0.75000000
   0.75000000  0.25000000  0.75000000
   0.25000000  0.75000000  0.75000000
   0.75000000  0.75000000  0.75000000
 
 position of ions in cartesian coordinates  (Angst):
   0.00000000  0.00000000  0.00000000
   0.00000000  2.56710499  2.56710499
   2.56710499  0.00000000  2.56710499
   2.56710499  2.56710499  5.13420998
   2.56710499  2.56710499  0.00000000
   2.56710499  5.13420998  2.56710499
   5.13420998  2.56710499  2.56710499
   5.13420998  5.13420998  5.13420998
   2.56710499  2.92065838  2.92065838
   2.56710499  5.13420998  5.13420998
   5.13420998  2.56710499  5.13420998
   5.13420998  5.13420998  7.70131497
   5.13420998  5.13420998  2.56710499
   5.13420998  7.70131497  5.13420998
   7.70131497  5.13420998  5.13420998
   7.70131497  7.70131497  7.70131497
 


--------------------------------------------------------------------------------------------------------


 k-point  1 :   0.0000 0.0000 0.0000  plane waves:   13851
 k-point  2 :   0.2500 0.0000 0.0000  plane waves:   13905
 k-point  3 :   0.5000 0.0000 0.0000  plane waves:   13960
 k-point  4 :   0.0000 0.2500 0.0000  plane waves:   13905
 k-point  5 :   0.2500 0.2500 0.0000  plane waves:   13944
 k-point  6 :   0.5000 0.2500 0.0000  plane waves:   13909
 k-point  7 :  -0.2500 0.2500 0.0000  plane waves:   13873
 k-point  8 :   0.0000 0.5000 0.0000  plane waves:   13960
 k-point  9 :   0.2500 0.5000 0.0000  plane waves:   13909
 k-point 10 :   0.5000 0.5000 0.0000  plane waves:   13888
 k-point 11 :   0.0000 0.2500 0.2500  plane waves:   13944
 k-point 12 :   0.5000 0.2500 0.2500  plane waves:   13873
 k-point 13 :  -0.2500 0.2500 0.2500  plane waves:   13909
 k-point 14 :   0.0000 0.5000 0.2500  plane waves:   13909
 k-point 15 :  -0.2500 0.5000 0.2500  plane waves:   13868
 k-point 16 :   0.0000-0.2500 0.2500  plane waves:   13873
 k-point 17 :   0.5000-0.2500 0.2500  plane waves:   13868
 k-point 18 :   0.0000 0.5000 0.5000  plane waves:   13888

 maximum and minimum number of plane-waves per node :      1763     1688

 maximum number of plane-waves:     13960
 maximum index in each direction: 
   IXMAX=   16   IYMAX=   16   IZMAX=   16
   IXMIN=  -17   IYMIN=  -17   IZMIN=  -17

 NGX is ok and might be reduce to  68
 NGY is ok and might be reduce to  68
 NGZ is ok and might be reduce to  68

 parallel 3D FFT for wavefunctions:
    minimum data exchange during FFTs selected (reduces bandwidth)
 parallel 3D FFT for charge:
    minimum data exchange during FFTs selected (reduces bandwidth)


 total amount of memory used by VASP on root node    97735. kBytes
========================================================================

   base      :      30000. kBytes
   nonl-proj :       9520. kBytes
   fftplans  :      26995. kBytes
   grid      :      11753. kBytes
   one-center:         31. kBytes
   wavefun   :      19436. kBytes
 
     INWAV:  cpu time    0.0000: real time    0.0000
 Broyden mixing: mesh for mixing (old mesh)
   NGX = 33   NGY = 33   NGZ = 33
  (NGX  =140   NGY  =140   NGZ  =140)
  gives a total of  35937 points

 initial charge density was supplied:
 charge density of overlapping atoms calculated
 number of electron     128.0000000 magnetization 
 keeping initial charge density in first step


--------------------------------------------------------------------------------------------------------


 Maximum index for augmentation-charges        39792 (set IRDMAX)


--------------------------------------------------------------------------------------------------------


 First call to EWALD:  gamma=   0.274
 Maximum number of real-space cells 3x 3x 3
 Maximum number of reciprocal cells 3x 3x 3

 FEWALD executed in parallel
    FEWALD:  cpu time    0.0000: real time    0.0017


----------------------------------------- Iteration    1(   1)  ---------------------------------------


    POTLOK:  cpu time    0.1520: real time    0.1512
    SETDIJ:  cpu time    0.5200: real time    0.5233
     EDDAV:  cpu time    7.0760: real time    7.0780
       DOS:  cpu time    0.0000: real time    0.0015
    --------------------------------------------
      LOOP:  cpu time    7.7520: real time    7.7555

 eigenvalue-minimisations  :  2736
 total energy-change (2. order) : 0.1123986E+04  (-0.8585824E+04)
 number of electron     128.0000000 magnetization 
 augmentation part      128.0000000 magnetization 

 Free energy of the ion-electron system (eV)
  ---------------------------------------------------
  alpha Z        PSCENC =       796.84035699
  Ewald energy   TEWEN  =     -8442.38397930
  -Hartree energ DENC   =     -1845.32045319
  -exchange      EXHF   =         0.00000000
  -V(xc)+E(xc)   XCENC  =       513.12888906
  PAW double counting   =      7817.12183272    -7712.97334390
  entropy T*S    EENTRO =        -0.00050513
  eigenvalues    EBANDS =      -186.94943476
  atomic energy  EATOM  =     10184.52279430
  Solvation  Ediel_sol  =         0.00000000
  ---------------------------------------------------
  free energy    TOTEN  =      1123.98615678 eV

  energy without entropy =     1123.98666190  energy(sigma->0) =     1123.98640934


--------------------------------------------------------------------------------------------------------




----------------------------------------- Iteration    1(   2)  ---------------------------------------


     EDDAV:  cpu time    8.4080: real time    8.4044
       DOS:  cpu time    0.0000: real time    0.0003
    --------------------------------------------
      LOOP:  cpu time    8.4080: real time    8.4051

 eigenvalue-minimisations  :  3480
 total energy-change (2. order) :-0.1146265E+04  (-0.1105795E+04)
 number of electron     128.0000000 magnetization 
 augmentation part      128.0000000 magnetization 

 Free energy of the ion-electron system (eV)
  ---------------------------------------------------
  alpha Z        PSCENC =       796.84035699
  Ewald energy   TEWEN  =     -8442.38397930
  -Hartree energ DENC   =     -1845.32045319
  -exchange      EXHF   =         0.00000000
  -V(xc)+E(xc)   XCENC  =       513.12888906
  PAW double counting   =      7817.12183272    -7712.97334390
  entropy T*S    EENTRO =        -0.00000000
  eigenvalues    EBANDS =     -1333.21538000
  atomic energy  EATOM  =     10184.52279430
  Solvation  Ediel_sol  =         0.00000000
  ---------------------------------------------------
  free energy    TOTEN  =       -22.27928334 eV

  energy without entropy =      -22.27928334  energy(sigma->0) =      -22.27928334


--------------------------------------------------------------------------------------------------------




----------------------------------------- Iteration    1(   3)  ---------------------------------------


     EDDAV:  cpu time    8.3440: real time    8.3538
       DOS:  cpu time    0.0000: real time    0.0003
    --------------------------------------------
      LOOP:  cpu time    8.3440: real time    8.3545

 eigenvalue-minimisations  :  3448
 total energy-change (2. order) :-0.8962540E+02  (-0.8913671E+02)
 number of electron     128.0000000 magnetization 
 augmentation part      128.0000000 magnetization 

 Free energy of the ion-electron system (eV)
  ---------------------------------------------------
  alpha Z        PSCENC =       796.84035699
  Ewald energy   TEWEN  =     -8442.38397930
  -Hartree energ DENC   =     -1845.32045319
  -exchange      EXHF   =         0.00000000
  -V(xc)+E(xc)   XCENC  =       513.12888906
  PAW double counting   =      7817.12183272    -7712.97334390
  entropy T*S    EENTRO =        -0.00000000
  eigenvalues    EBANDS =     -1422.84077535
  atomic energy  EATOM  =     10184.52279430
  Solvation  Ediel_sol  =         0.00000000
  ---------------------------------------------------
  free energy    TOTEN  =      -111.90467868 eV

  energy without entropy =     -111.90467868  energy(sigma->0) =     -111.90467868


--------------------------------------------------------------------------------------------------------




----------------------------------------- Iteration    1(   4)  ---------------------------------------


     EDDAV:  cpu time    9.5840: real time    9.5864
       DOS:  cpu time    0.0000: real time    0.0003
    --------------------------------------------
      LOOP:  cpu time    9.5840: real time    9.5872

 eigenvalue-minimisations  :  4144
 total energy-change (2. order) :-0.4713522E+01  (-0.4705270E+01)
 number of electron     128.0000000 magnetization 
 augmentation part      128.0000000 magnetization 

 Free energy of the ion-electron system (eV)
  ---------------------------------------------------
  alpha Z        PSCENC =       796.84035699
  Ewald energy   TEWEN  =     -8442.38397930
  -Hartree energ DENC   =     -1845.32045319
  -exchange      EXHF   =         0.00000000
  -V(xc)+E(xc)   XCENC  =       513.12888906
  PAW double counting   =      7817.12183272    -7712.97334390
  entropy T*S    EENTRO =        -0.00000000
  eigenvalues    EBANDS =     -1427.55429696
  atomic energy  EATOM  =     10184.52279430
  Solvation  Ediel_sol  =         0.00000000
  ---------------------------------------------------
  free energy    TOTEN  =      -116.61820029 eV

  energy without entropy =     -116.61820029  energy(sigma->0) =     -116.61820029


--------------------------------------------------------------------------------------------------------




----------------------------------------- Iteration    1(   5)  ---------------------------------------


     EDDAV:  cpu time    8.7280: real time    8.7299
       DOS:  cpu time    0.0000: real time    0.0004
    CHARGE:  cpu time    0.8520: real time    0.8548
    MIXING:  cpu time    0.0080: real time    0.0047
    --------------------------------------------
      LOOP:  cpu time    9.5880: real time    9.5903

 eigenvalue-minimisations  :  3656
 total energy-change (2. order) :-0.1628102E+00  (-0.1627786E+00)
 number of electron     128.0000001 magnetization 
 augmentation part       11.4602118 magnetization 

 Broyden mixing:
  rms(total) = 0.51696E+01    rms(broyden)= 0.51695E+01
  rms(prec ) = 0.64779E+01
  weight for this iteration     100.00

 Free energy of the ion-electron system (eV)
  ---------------------------------------------------
  alpha Z        PSCENC =       796.84035699
  Ewald energy   TEWEN  =     -8442.38397930
  -Hartree energ DENC   =     -1845.32045319
  -exchange      EXHF   =         0.00000000
  -V(xc)+E(xc)   XCENC  =       513.12888906
  PAW double counting   =      7817.12183272    -7712.97334390
  entropy T*S    EENTRO =        -0.00000000
  eigenvalues    EBANDS =     -1427.71710719
  atomic energy  EATOM  =     10184.52279430
  Solvation  Ediel_sol  =         0.00000000
  ---------------------------------------------------
  free energy    TOTEN  =      -116.78101053 eV

  energy without entropy =     -116.78101053  energy(sigma->0) =     -116.78101053


--------------------------------------------------------------------------------------------------------




----------------------------------------- Iteration    1(   6)  ---------------------------------------


    POTLOK:  cpu time    0.1480: real time    0.1483
    SETDIJ:  cpu time    0.5240: real time    0.5264
     EDDAV:  cpu time    8.1120: real time    8.1134
       DOS:  cpu time    0.0000: real time    0.0004
    CHARGE:  cpu time    0.8520: real time    0.8540
    MIXING:  cpu time    0.0040: real time    0.0048
    --------------------------------------------
      LOOP:  cpu time    9.6400: real time    9.6479

 eigenvalue-minimisations  :  3308
 total energy-change (2. order) : 0.1572305E+02  (-0.1070091E+02)
 number of electron     128.0000001 magnetization 
 augmentation part        9.5395040 magnetization 

 Broyden mixing:
  rms(total) = 0.66018E+01    rms(broyden)= 0.66018E+01
  rms(prec ) = 0.66971E+01
  weight for this iteration     100.00

 eigenvalues of (default mixing * dielectric matrix)
  average eigenvalue GAMMA=   0.1272
  0.1272

 Free energy of the ion-electron system (eV)
  ---------------------------------------------------
  alpha Z        PSCENC =       796.84035699
  Ewald energy   TEWEN  =     -8442.38397930
  -Hartree energ DENC   =     -1975.17068424
  -exchange      EXHF   =         0.00000000
  -V(xc)+E(xc)   XCENC  =       522.21351535
  PAW double counting   =     11118.15391531   -11037.70609175
  entropy T*S    EENTRO =        -0.00000000
  eigenvalues    EBANDS =     -1267.52778660
  atomic energy  EATOM  =     10184.52279430
  Solvation  Ediel_sol  =         0.00000000
  ---------------------------------------------------
  free energy    TOTEN  =      -101.05795995 eV

  energy without entropy =     -101.05795995  energy(sigma->0) =     -101.05795995


--------------------------------------------------------------------------------------------------------




----------------------------------------- Iteration    1(   7)  ---------------------------------------


    POTLOK:  cpu time    0.1480: real time    0.1490
    SETDIJ:  cpu time    0.5240: real time    0.5265
     EDDAV:  cpu time    8.3040: real time    8.3047
       DOS:  cpu time    0.0000: real time    0.0003
    CHARGE:  cpu time    0.8440: real time    0.8467
    MIXING:  cpu time    0.0120: real time    0.0106
    --------------------------------------------
      LOOP:  cpu time    9.8360: real time    9.8384

 eigenvalue-minimisations  :  3416
 total energy-change (2. order) : 0.4860766E-01  (-0.8990634E+00)
 number of electron     128.0000001 magnetization 
 augmentation part        9.2183726 magnetization 

 Broyden mixing:
  rms(total) = 0.43458E+01    rms(broyden)= 0.43458E+01
  rms(prec ) = 0.44164E+01
  weight for this iteration     100.00

 eigenvalues of (default mixing * dielectric matrix)
  average eigenvalue GAMMA=   1.1777
  0.9517  1.4038

 Free energy of the ion-electron system (eV)
  ---------------------------------------------------
  alpha Z        PSCENC =       796.84035699
  Ewald energy   TEWEN  =     -8442.38397930
  -Hartree energ DENC   =     -1956.20014969
  -exchange      EXHF   =         0.00000000
  -V(xc)+E(xc)   XCENC  =       520.86364200
  PAW double counting   =     12808.46644030   -12732.10755971
  entropy T*S    EENTRO =        -0.00000000
  eigenvalues    EBANDS =     -1281.01089717
  atomic energy  EATOM  =     10184.52279430
  Solvation  Ediel_sol  =         0.00000000
  ---------------------------------------------------
  free energy    TOTEN  =      -101.00935229 eV

  energy without entropy =     -101.00935229  energy(sigma->0) =     -101.00935229


--------------------------------------------------------------------------------------------------------




----------------------------------------- Iteration    1(   8)  ---------------------------------------


    POTLOK:  cpu time    0.1480: real time    0.1476
    SETDIJ:  cpu time    0.5240: real time    0.5241
     EDDAV:  cpu time    7.9200: real time    7.9227
       DOS:  cpu time    0.0000: real time    0.0004
    CHARGE:  cpu time    0.8480: real time    0.8506
    MIXING:  cpu time    0.0080: real time    0.0050
    --------------------------------------------
      LOOP:  cpu time    9.4480: real time    9.4510

 eigenvalue-minimisations  :  3204
 total energy-change (2. order) : 0.3908530E+00  (-0.4600976E+00)
 number of electron     128.0000001 magnetization 
 augmentation part        9.4643486 magnetization 

 Broyden mixing:
  rms(total) = 0.11902E+01    rms(broyden)= 0.11902E+01
  rms(prec ) = 0.12752E+01
  weight for this iteration     100.00

 eigenvalues of (default mixing * dielectric matrix)
  average eigenvalue GAMMA=   1.3343
  2.4193  0.7918  0.7918

 Free energy of the ion-electron system (eV)
  ---------------------------------------------------
  alpha Z        PSCENC =       796.84035699
  Ewald energy   TEWEN  =     -8442.38397930
  -Hartree energ DENC   =     -1932.89207900
  -exchange      EXHF   =         0.00000000
  -V(xc)+E(xc)   XCENC  =       519.10119222
  PAW double counting   =     17874.77463785   -17804.80153269
  entropy T*S    EENTRO =        -0.00000000
  eigenvalues    EBANDS =     -1295.77988964
  atomic energy  EATOM  =     10184.52279430
  Solvation  Ediel_sol  =         0.00000000
  ---------------------------------------------------
  free energy    TOTEN  =      -100.61849928 eV

  energy without entropy =     -100.61849928  energy(sigma->0) =     -100.61849928


--------------------------------------------------------------------------------------------------------




----------------------------------------- Iteration    1(   9)  ---------------------------------------


    POTLOK:  cpu time    0.1480: real time    0.1477
    SETDIJ:  cpu time    0.5280: real time    0.5279
     EDDAV:  cpu time    8.3040: real time    8.3089
       DOS:  cpu time    0.0000: real time    0.0003
    CHARGE:  cpu time    0.8520: real time    0.8534
    MIXING:  cpu time    0.0040: real time    0.0051
    --------------------------------------------
      LOOP:  cpu time    9.8360: real time    9.8438

 eigenvalue-minimisations  :  3416
 total energy-change (2. order) : 0.1488786E+00  (-0.7286304E-01)
 number of electron     128.0000001 magnetization 
 augmentation part        9.2913691 magnetization 

 Broyden mixing:
  rms(total) = 0.38065E+00    rms(broyden)= 0.38065E+00
  rms(prec ) = 0.38943E+00
  weight for this iteration     100.00

 eigenvalues of (default mixing * dielectric matrix)
  average eigenvalue GAMMA=   1.4112
  2.4349  0.8468  0.8468  1.5164

 Free energy of the ion-electron system (eV)
  ---------------------------------------------------
  alpha Z        PSCENC =       796.84035699
  Ewald energy   TEWEN  =     -8442.38397930
  -Hartree energ DENC   =     -1942.28912626
  -exchange      EXHF   =         0.00000000
  -V(xc)+E(xc)   XCENC  =       519.74725555
  PAW double counting   =     20707.25782335   -20642.80848750
  entropy T*S    EENTRO =        -0.00000000
  eigenvalues    EBANDS =     -1281.35625784
  atomic energy  EATOM  =     10184.52279430
  Solvation  Ediel_sol  =         0.00000000
  ---------------------------------------------------
  free energy    TOTEN  =      -100.46962072 eV

  energy without entropy =     -100.46962072  energy(sigma->0) =     -100.46962072


--------------------------------------------------------------------------------------------------------




----------------------------------------- Iteration    1(  10)  ---------------------------------------


    POTLOK:  cpu time    0.1480: real time    0.1480
    SETDIJ:  cpu time    0.5240: real time    0.5234
     EDDAV:  cpu time    8.8000: real time    8.8020
       DOS:  cpu time    0.0000: real time    0.0004
    CHARGE:  cpu time    0.8520: real time    0.8545
    MIXING:  cpu time    0.0080: real time    0.0052
    --------------------------------------------
      LOOP:  cpu time   10.3320: real time   10.3342

 eigenvalue-minimisations  :  3696
 total energy-change (2. order) :-0.9807380E-02  (-0.7598776E-02)
 number of electron     128.0000001 magnetization 
 augmentation part        9.2626987 magnetization 

 Broyden mixing:
  rms(total) = 0.14065E+00    rms(broyden)= 0.14065E+00
  rms(prec ) = 0.15113E+00
  weight for this iteration     100.00

 eigenvalues of (default mixing * dielectric matrix)
  average eigenvalue GAMMA=   1.3402
  2.4510  1.5279  0.8433  0.8433  1.0356

 Free energy of the ion-electron system (eV)
  ---------------------------------------------------
  alpha Z        PSCENC =       796.84035699
  Ewald energy   TEWEN  =     -8442.38397930
  -Hartree energ DENC   =     -1940.51465844
  -exchange      EXHF   =         0.00000000
  -V(xc)+E(xc)   XCENC  =       519.64090581
  PAW double counting   =     20911.64373072   -20847.68672874
  entropy T*S    EENTRO =        -0.00000000
  eigenvalues    EBANDS =     -1282.54184943
  atomic energy  EATOM  =     10184.52279430
  Solvation  Ediel_sol  =         0.00000000
  ---------------------------------------------------
  free energy    TOTEN  =      -100.47942810 eV

  energy without entropy =     -100.47942810  energy(sigma->0) =     -100.47942810


--------------------------------------------------------------------------------------------------------




----------------------------------------- Iteration    1(  11)  ---------------------------------------


    POTLOK:  cpu time    0.1480: real time    0.1484
    SETDIJ:  cpu time    0.5280: real time    0.5265
     EDDAV:  cpu time    9.8520: real time    9.8602
       DOS:  cpu time    0.0040: real time    0.0004
    CHARGE:  cpu time    0.8520: real time    0.8537
    MIXING:  cpu time    0.0040: real time    0.0053
    --------------------------------------------
      LOOP:  cpu time   11.3880: real time   11.3953

 eigenvalue-minimisations  :  4288
 total energy-change (2. order) : 0.9159996E-03  (-0.9502918E-03)
 number of electron     128.0000001 magnetization 
 augmentation part        9.2373559 magnetization 

 Broyden mixing:
  rms(total) = 0.65479E-01    rms(broyden)= 0.65479E-01
  rms(prec ) = 0.68607E-01
  weight for this iteration     100.00

 eigenvalues of (default mixing * dielectric matrix)
  average eigenvalue GAMMA=   1.4240
  2.2920  2.2920  0.8182  0.8182  1.2680  1.0557

 Free energy of the ion-electron system (eV)
  ---------------------------------------------------
  alpha Z        PSCENC =       796.84035699
  Ewald energy   TEWEN  =     -8442.38397930
  -Hartree energ DENC   =     -1941.22592412
  -exchange      EXHF   =         0.00000000
  -V(xc)+E(xc)   XCENC  =       519.69422467
  PAW double counting   =     21039.56685758   -20975.93953879
  entropy T*S    EENTRO =        -0.00000000
  eigenvalues    EBANDS =     -1281.55330343
  atomic energy  EATOM  =     10184.52279430
  Solvation  Ediel_sol  =         0.00000000
  ---------------------------------------------------
  free energy    TOTEN  =      -100.47851211 eV

  energy without entropy =     -100.47851211  energy(sigma->0) =     -100.47851211


--------------------------------------------------------------------------------------------------------




----------------------------------------- Iteration    1(  12)  ---------------------------------------


    POTLOK:  cpu time    0.1520: real time    0.1488
    SETDIJ:  cpu time    0.5240: real time    0.5271
     EDDAV:  cpu time    8.8320: real time    8.8361
       DOS:  cpu time    0.0000: real time    0.0004
    CHARGE:  cpu time    0.8520: real time    0.8522
    MIXING:  cpu time    0.0080: real time    0.0056
    --------------------------------------------
      LOOP:  cpu time   10.3680: real time   10.3708

 eigenvalue-minimisations  :  3720
 total energy-change (2. order) :-0.1398380E-03  (-0.2156317E-03)
 number of electron     128.0000001 magnetization 
 augmentation part        9.2266920 magnetization 

 Broyden mixing:
  rms(total) = 0.20235E-01    rms(broyden)= 0.20235E-01
  rms(prec ) = 0.21759E-01
  weight for this iteration     100.00

 eigenvalues of (default mixing * dielectric matrix)
  average eigenvalue GAMMA=   1.4343
  2.5315  2.5315  1.5318  0.8256  0.8256  0.9771  0.8168

 Free energy of the ion-electron system (eV)
  ---------------------------------------------------
  alpha Z        PSCENC =       796.84035699
  Ewald energy   TEWEN  =     -8442.38397930
  -Hartree energ DENC   =     -1941.49163744
  -exchange      EXHF   =         0.00000000
  -V(xc)+E(xc)   XCENC  =       519.71421680
  PAW double counting   =     21054.44640002   -20990.86589132
  entropy T*S    EENTRO =        -0.00000000
  eigenvalues    EBANDS =     -1281.26091198
  atomic energy  EATOM  =     10184.52279430
  Solvation  Ediel_sol  =         0.00000000
  ---------------------------------------------------
  free energy    TOTEN  =      -100.47865194 eV

  energy without entropy =     -100.47865194  energy(sigma->0) =     -100.47865194


--------------------------------------------------------------------------------------------------------




----------------------------------------- Iteration    1(  13)  ---------------------------------------


    POTLOK:  cpu time    0.1480: real time    0.1481
    SETDIJ:  cpu time    0.5240: real time    0.5258
     EDDAV:  cpu time    8.8240: real time    8.8275
       DOS:  cpu time    0.0000: real time    0.0003
    CHARGE:  cpu time    0.8560: real time    0.8559
    MIXING:  cpu time    0.0080: real time    0.0061
    --------------------------------------------
      LOOP:  cpu time   10.3600: real time   10.3643

 eigenvalue-minimisations  :  3712
 total energy-change (2. order) :-0.1177478E-04  (-0.3759945E-04)
 number of electron     128.0000001 magnetization 
 augmentation part        9.2221484 magnetization 

 Broyden mixing:
  rms(total) = 0.23398E-02    rms(broyden)= 0.23397E-02
  rms(prec ) = 0.27720E-02
  weight for this iteration     100.00

 eigenvalues of (default mixing * dielectric matrix)
  average eigenvalue GAMMA=   1.4132
  2.7094  2.4608  1.3954  1.3954  0.8239  0.8239  0.8486  0.8486

 Free energy of the ion-electron system (eV)
  ---------------------------------------------------
  alpha Z        PSCENC =       796.84035699
  Ewald energy   TEWEN  =     -8442.38397930
  -Hartree energ DENC   =     -1941.75007614
  -exchange      EXHF   =         0.00000000
  -V(xc)+E(xc)   XCENC  =       519.73188235
  PAW double counting   =     21079.37969753   -21015.83471935
  entropy T*S    EENTRO =        -0.00000000
  eigenvalues    EBANDS =     -1280.98462008
  atomic energy  EATOM  =     10184.52279430
  Solvation  Ediel_sol  =         0.00000000
  ---------------------------------------------------
  free energy    TOTEN  =      -100.47866372 eV

  energy without entropy =     -100.47866372  energy(sigma->0) =     -100.47866372


--------------------------------------------------------------------------------------------------------




----------------------------------------- Iteration    1(  14)  ---------------------------------------


    POTLOK:  cpu time    0.1480: real time    0.1485
    SETDIJ:  cpu time    0.5280: real time    0.5274
     EDDAV:  cpu time    8.5520: real time    8.5567
       DOS:  cpu time    0.0000: real time    0.0004
    CHARGE:  cpu time    0.8440: real time    0.8455
    MIXING:  cpu time    0.0160: real time    0.0135
    --------------------------------------------
      LOOP:  cpu time   10.0880: real time   10.0926

 eigenvalue-minimisations  :  3560
 total energy-change (2. order) :-0.9003343E-05  (-0.4453365E-05)
 number of electron     128.0000001 magnetization 
 augmentation part        9.2217159 magnetization 

 Broyden mixing:
  rms(total) = 0.30978E-02    rms(broyden)= 0.30977E-02
  rms(prec ) = 0.32647E-02
  weight for this iteration     100.00

 eigenvalues of (default mixing * dielectric matrix)
  average eigenvalue GAMMA=   1.3794
  2.7482  2.3039  1.6067  1.6067  0.8244  0.8244  0.8469  0.8266  0.8266

 Free energy of the ion-electron system (eV)
  ---------------------------------------------------
  alpha Z        PSCENC =       796.84035699
  Ewald energy   TEWEN  =     -8442.38397930
  -Hartree energ DENC   =     -1941.76222863
  -exchange      EXHF   =         0.00000000
  -V(xc)+E(xc)   XCENC  =       519.73247922
  PAW double counting   =     21081.08304728   -21017.52928786
  entropy T*S    EENTRO =        -0.00000000
  eigenvalues    EBANDS =     -1280.98185472
  atomic energy  EATOM  =     10184.52279430
  Solvation  Ediel_sol  =         0.00000000
  ---------------------------------------------------
  free energy    TOTEN  =      -100.47867272 eV

  energy without entropy =     -100.47867272  energy(sigma->0) =     -100.47867272


--------------------------------------------------------------------------------------------------------




----------------------------------------- Iteration    1(  15)  ---------------------------------------


    POTLOK:  cpu time    0.1480: real time    0.1480
    SETDIJ:  cpu time    0.5240: real time    0.5272
     EDDAV:  cpu time    9.6560: real time    9.6577
       DOS:  cpu time    0.0000: real time    0.0005
    CHARGE:  cpu time    0.8520: real time    0.8550
    MIXING:  cpu time    0.0080: real time    0.0066
    --------------------------------------------
      LOOP:  cpu time   11.1880: real time   11.1956

 eigenvalue-minimisations  :  4176
 total energy-change (2. order) : 0.8389543E-07  (-0.5288828E-06)
 number of electron     128.0000001 magnetization 
 augmentation part        9.2214642 magnetization 

 Broyden mixing:
  rms(total) = 0.18257E-02    rms(broyden)= 0.18257E-02
  rms(prec ) = 0.19425E-02
  weight for this iteration     100.00

 eigenvalues of (default mixing * dielectric matrix)
  average eigenvalue GAMMA=   1.4027
  2.8175  2.3939  1.8300  1.8300  0.9507  0.9507  0.8256  0.8256  0.8012  0.8012

 Free energy of the ion-electron system (eV)
  ---------------------------------------------------
  alpha Z        PSCENC =       796.84035699
  Ewald energy   TEWEN  =     -8442.38397930
  -Hartree energ DENC   =     -1941.79454625
  -exchange      EXHF   =         0.00000000
  -V(xc)+E(xc)   XCENC  =       519.73438762
  PAW double counting   =     21082.25973893   -21018.69960427
  entropy T*S    EENTRO =        -0.00000000
  eigenvalues    EBANDS =     -1280.95782065
  atomic energy  EATOM  =     10184.52279430
  Solvation  Ediel_sol  =         0.00000000
  ---------------------------------------------------
  free energy    TOTEN  =      -100.47867264 eV

  energy without entropy =     -100.47867264  energy(sigma->0) =     -100.47867264


--------------------------------------------------------------------------------------------------------




----------------------------------------- Iteration    1(  16)  ---------------------------------------


    POTLOK:  cpu time    0.1480: real time    0.1480
    SETDIJ:  cpu time    0.5280: real time    0.5287
     EDDAV:  cpu time    8.2760: real time    8.2777
       DOS:  cpu time    0.0000: real time    0.0004
    CHARGE:  cpu time    0.9120: real time    0.9137
    MIXING:  cpu time    0.0080: real time    0.0068
    --------------------------------------------
      LOOP:  cpu time    9.8720: real time    9.8759

 eigenvalue-minimisations  :  3400
 total energy-change (2. order) :-0.3306432E-06  (-0.9090176E-07)
 number of electron     128.0000001 magnetization 
 augmentation part        9.2216252 magnetization 

 Broyden mixing:
  rms(total) = 0.13428E-02    rms(broyden)= 0.13428E-02
  rms(prec ) = 0.13954E-02
  weight for this iteration     100.00

 eigenvalues of (default mixing * dielectric matrix)
  average eigenvalue GAMMA=   1.4171
  2.8701  2.2199  2.2199  1.7677  1.4005  0.9246  0.9246  0.8267  0.8267  0.8038
  0.8038

 Free energy of the ion-electron system (eV)
  ---------------------------------------------------
  alpha Z        PSCENC =       796.84035699
  Ewald energy   TEWEN  =     -8442.38397930
  -Hartree energ DENC   =     -1941.80770490
  -exchange      EXHF   =         0.00000000
  -V(xc)+E(xc)   XCENC  =       519.73510373
  PAW double counting   =     21081.43917264   -21017.87064344
  entropy T*S    EENTRO =        -0.00000000
  eigenvalues    EBANDS =     -1280.95377297
  atomic energy  EATOM  =     10184.52279430
  Solvation  Ediel_sol  =         0.00000000
  ---------------------------------------------------
  free energy    TOTEN  =      -100.47867297 eV

  energy without entropy =     -100.47867297  energy(sigma->0) =     -100.47867297


--------------------------------------------------------------------------------------------------------




----------------------------------------- Iteration    1(  17)  ---------------------------------------


    POTLOK:  cpu time    0.1480: real time    0.1493
    SETDIJ:  cpu time    0.5280: real time    0.5260
     EDDAV:  cpu time    8.9240: real time    8.9265
       DOS:  cpu time    0.0000: real time    0.0003
    CHARGE:  cpu time    0.8480: real time    0.8489
    MIXING:  cpu time    0.0120: real time    0.0124
    --------------------------------------------
      LOOP:  cpu time   10.4600: real time   10.4639

 eigenvalue-minimisations  :  3760
 total energy-change (2. order) : 0.1588069E-06  (-0.2674551E-07)
 number of electron     128.0000001 magnetization 
 augmentation part        9.2217534 magnetization 

 Broyden mixing:
  rms(total) = 0.47246E-03    rms(broyden)= 0.47231E-03
  rms(prec ) = 0.51879E-03
  weight for this iteration     100.00

 eigenvalues of (default mixing * dielectric matrix)
  average eigenvalue GAMMA=   1.4102
  2.8377  2.3424  2.1040  2.1040  1.4681  1.0978  0.8621  0.8621  0.8257  0.8257
  0.7963  0.7963

 Free energy of the ion-electron system (eV)
  ---------------------------------------------------
  alpha Z        PSCENC =       796.84035699
  Ewald energy   TEWEN  =     -8442.38397930
  -Hartree energ DENC   =     -1941.81717326
  -exchange      EXHF   =         0.00000000
  -V(xc)+E(xc)   XCENC  =       519.73562843
  PAW double counting   =     21080.69510635   -21017.12232790
  entropy T*S    EENTRO =        -0.00000000
  eigenvalues    EBANDS =     -1280.94907841
  atomic energy  EATOM  =     10184.52279430
  Solvation  Ediel_sol  =         0.00000000
  ---------------------------------------------------
  free energy    TOTEN  =      -100.47867281 eV

  energy without entropy =     -100.47867281  energy(sigma->0) =     -100.47867281


--------------------------------------------------------------------------------------------------------




----------------------------------------- Iteration    1(  18)  ---------------------------------------


    POTLOK:  cpu time    0.1480: real time    0.1484
    SETDIJ:  cpu time    0.5280: real time    0.5264
     EDDAV:  cpu time    7.1600: real time    7.1666
       DOS:  cpu time    0.0040: real time    0.0004
    CHARGE:  cpu time    0.8520: real time    0.8531
    MIXING:  cpu time    0.0080: real time    0.0089
    --------------------------------------------
      LOOP:  cpu time    8.7000: real time    8.7045

 eigenvalue-minimisations  :  2768
 total energy-change (2. order) : 0.1246917E-07  (-0.1359083E-07)
 number of electron     128.0000001 magnetization 
 augmentation part        9.2218365 magnetization 

 Broyden mixing:
  rms(total) = 0.26136E-03    rms(broyden)= 0.26110E-03
  rms(prec ) = 0.26887E-03
  weight for this iteration     100.00

 eigenvalues of (default mixing * dielectric matrix)
  average eigenvalue GAMMA=   1.4149
  2.9115  2.3206  2.3206  1.7316  1.7316  1.1631  1.1631  0.9888  0.8071  0.8071
  0.8329  0.8329  0.7831

 Free energy of the ion-electron system (eV)
  ---------------------------------------------------
  alpha Z        PSCENC =       796.84035699
  Ewald energy   TEWEN  =     -8442.38397930
  -Hartree energ DENC   =     -1941.81666749
  -exchange      EXHF   =         0.00000000
  -V(xc)+E(xc)   XCENC  =       519.73555929
  PAW double counting   =     21080.21422766   -21016.63953286
  entropy T*S    EENTRO =        -0.00000000
  eigenvalues    EBANDS =     -1280.95143138
  atomic energy  EATOM  =     10184.52279430
  Solvation  Ediel_sol  =         0.00000000
  ---------------------------------------------------
  free energy    TOTEN  =      -100.47867280 eV

  energy without entropy =     -100.47867280  energy(sigma->0) =     -100.47867280


--------------------------------------------------------------------------------------------------------




----------------------------------------- Iteration    1(  19)  ---------------------------------------


    POTLOK:  cpu time    0.1480: real time    0.1494
    SETDIJ:  cpu time    0.5280: real time    0.5261
     EDDAV:  cpu time    7.2800: real time    7.2851
       DOS:  cpu time    0.0000: real time    0.0004
    CHARGE:  cpu time    0.8560: real time    0.8565
    MIXING:  cpu time    0.0080: real time    0.0075
    --------------------------------------------
      LOOP:  cpu time    8.8200: real time    8.8256

 eigenvalue-minimisations  :  2824
 total energy-change (2. order) : 0.3161222E-07  (-0.4087482E-08)
 number of electron     128.0000001 magnetization 
 augmentation part        9.2218968 magnetization 

 Broyden mixing:
  rms(total) = 0.91169E-04    rms(broyden)= 0.90410E-04
  rms(prec ) = 0.96001E-04
  weight for this iteration     100.00

 eigenvalues of (default mixing * dielectric matrix)
  average eigenvalue GAMMA=   1.4106
  2.7545  2.6155  2.1113  2.1113  1.6710  1.6710  0.9881  0.9881  0.8105  0.8105
  0.8255  0.8255  0.7831  0.7831

 Free energy of the ion-electron system (eV)
  ---------------------------------------------------
  alpha Z        PSCENC =       796.84035699
  Ewald energy   TEWEN  =     -8442.38397930
  -Hartree energ DENC   =     -1941.81871666
  -exchange      EXHF   =         0.00000000
  -V(xc)+E(xc)   XCENC  =       519.73567450
  PAW double counting   =     21080.12721425   -21016.55184466
  entropy T*S    EENTRO =        -0.00000000
  eigenvalues    EBANDS =     -1280.95017218
  atomic energy  EATOM  =     10184.52279430
  Solvation  Ediel_sol  =         0.00000000
  ---------------------------------------------------
  free energy    TOTEN  =      -100.47867276 eV

  energy without entropy =     -100.47867276  energy(sigma->0) =     -100.47867276


--------------------------------------------------------------------------------------------------------




----------------------------------------- Iteration    1(  20)  ---------------------------------------


    POTLOK:  cpu time    0.1520: real time    0.1484
    SETDIJ:  cpu time    0.5200: real time    0.5236
     EDDAV:  cpu time    5.4320: real time    5.4324
       DOS:  cpu time    0.0000: real time    0.0003
    CHARGE:  cpu time    0.8440: real time    0.8458
    MIXING:  cpu time    0.0160: real time    0.0138
    --------------------------------------------
      LOOP:  cpu time    6.9640: real time    6.9649

 eigenvalue-minimisations  :  1784
 total energy-change (2. order) : 0.2511661E-07  (-0.8387930E-09)
 number of electron     128.0000001 magnetization 
 augmentation part        9.2219111 magnetization 

 Broyden mixing:
  rms(total) = 0.42384E-04    rms(broyden)= 0.40727E-04
  rms(prec ) = 0.45870E-04
  weight for this iteration     100.00

 eigenvalues of (default mixing * dielectric matrix)
  average eigenvalue GAMMA=   1.4073
  2.8666  2.4199  2.4199  2.0833  2.0833  1.5296  1.0548  0.8967  0.8097  0.8256
  0.8256  0.8079  0.8079  0.8392  0.8392

 Free energy of the ion-electron system (eV)
  ---------------------------------------------------
  alpha Z        PSCENC =       796.84035699
  Ewald energy   TEWEN  =     -8442.38397930
  -Hartree energ DENC   =     -1941.81796890
  -exchange      EXHF   =         0.00000000
  -V(xc)+E(xc)   XCENC  =       519.73562297
  PAW double counting   =     21080.06876286   -21016.49339805
  entropy T*S    EENTRO =        -0.00000000
  eigenvalues    EBANDS =     -1280.95086360
  atomic energy  EATOM  =     10184.52279430
  Solvation  Ediel_sol  =         0.00000000
  ---------------------------------------------------
  free energy    TOTEN  =      -100.47867274 eV

  energy without entropy =     -100.47867274  energy(sigma->0) =     -100.47867274


--------------------------------------------------------------------------------------------------------




----------------------------------------- Iteration    1(  21)  ---------------------------------------


    POTLOK:  cpu time    0.1480: real time    0.1484
    SETDIJ:  cpu time    0.5280: real time    0.5278
     EDDAV:  cpu time    5.3640: real time    5.3689
       DOS:  cpu time    0.0000: real time    0.0005
    CHARGE:  cpu time    0.8520: real time    0.8522
    MIXING:  cpu time    0.0040: real time    0.0074
    --------------------------------------------
      LOOP:  cpu time    6.9000: real time    6.9058

 eigenvalue-minimisations  :  1744
 total energy-change (2. order) : 0.2508023E-07  (-0.3226947E-09)
 number of electron     128.0000001 magnetization 
 augmentation part        9.2219120 magnetization 

 Broyden mixing:
  rms(total) = 0.23548E-04    rms(broyden)= 0.20414E-04
  rms(prec ) = 0.22592E-04
  weight for this iteration     100.00
  WARNING: grid for Broyden might be to small

 eigenvalues of (default mixing * dielectric matrix)
  average eigenvalue GAMMA=   1.3969
  2.7486  2.5706  2.3363  2.3363  1.9960  1.7900  0.9254  0.9254  0.9953  0.9588
  0.8257  0.8257  0.7990  0.7990  0.7592  0.7592

 Free energy of the ion-electron system (eV)
  ---------------------------------------------------
  alpha Z        PSCENC =       796.84035699
  Ewald energy   TEWEN  =     -8442.38397930
  -Hartree energ DENC   =     -1941.81836911
  -exchange      EXHF   =         0.00000000
  -V(xc)+E(xc)   XCENC  =       519.73564966
  PAW double counting   =     21080.09415428   -21016.51897130
  entropy T*S    EENTRO =        -0.00000000
  eigenvalues    EBANDS =     -1280.95030822
  atomic energy  EATOM  =     10184.52279430
  Solvation  Ediel_sol  =         0.00000000
  ---------------------------------------------------
  free energy    TOTEN  =      -100.47867271 eV

  energy without entropy =     -100.47867271  energy(sigma->0) =     -100.47867271


--------------------------------------------------------------------------------------------------------




----------------------------------------- Iteration    1(  22)  ---------------------------------------


    POTLOK:  cpu time    0.1440: real time    0.1478
    SETDIJ:  cpu time    0.5240: real time    0.5243
     EDDAV:  cpu time    5.3360: real time    5.3398
       DOS:  cpu time    0.0000: real time    0.0003
    --------------------------------------------
      LOOP:  cpu time    6.0120: real time    6.0128

 eigenvalue-minimisations  :  1728
 total energy-change (2. order) : 0.7628842E-08  (-0.1169659E-09)
 number of electron     128.0000001 magnetization 
 augmentation part        9.2219120 magnetization 

 Free energy of the ion-electron system (eV)
  ---------------------------------------------------
  alpha Z        PSCENC =       796.84035699
  Ewald energy   TEWEN  =     -8442.38397930
  -Hartree energ DENC   =     -1941.81826643
  -exchange      EXHF   =         0.00000000
  -V(xc)+E(xc)   XCENC  =       519.73564310
  PAW double counting   =     21080.07883919   -21016.50369495
  entropy T*S    EENTRO =        -0.00000000
  eigenvalues    EBANDS =     -1280.95036561
  atomic energy  EATOM  =     10184.52279430
  Solvation  Ediel_sol  =         0.00000000
  ---------------------------------------------------
  free energy    TOTEN  =      -100.47867271 eV

  energy without entropy =     -100.47867271  energy(sigma->0) =     -100.47867271


--------------------------------------------------------------------------------------------------------




 average (electrostatic) potential at core
  the test charge radii are     1.1929  0.7215
  (the norm of the test charge is              1.0000)
       1 -36.2145       2 -36.3293       3 -36.6178       4 -35.6855       5 -36.6178
       6 -35.6855       7 -36.3293       8 -36.2145       9 -70.8321      10 -70.7097
      11 -70.7725      12 -70.7725      13 -70.7725      14 -70.7725      15 -70.7546
      16 -70.7720
 
 
 
 E-fermi :   1.6060     XC(G=0): -10.2921     alpha+bet :-12.1858


 k-point     1 :       0.0000    0.0000    0.0000
  band No.  band energies     occupation 
      1     -30.9714      2.00000
      2     -30.9118      2.00000
      3     -30.6702      2.00000
      4     -30.6545      2.00000
      5     -30.5452      2.00000
      6     -30.5326      2.00000
      7     -30.0938      2.00000
      8     -30.0457      2.00000
      9     -15.2188      2.00000
     10     -15.0423      2.00000
     11     -15.0422      2.00000
     12     -15.0018      2.00000
     13     -13.9879      2.00000
     14     -13.4800      2.00000
     15     -13.4644      2.00000
     16     -13.4266      2.00000
     17     -13.4265      2.00000
     18     -13.3936      2.00000
     19     -13.1881      2.00000
     20     -12.9344      2.00000
     21     -12.8885      2.00000
     22     -12.8700      2.00000
     23     -12.8180      2.00000
     24     -12.7835      2.00000
     25     -12.7730      2.00000
     26     -12.5895      2.00000
     27     -12.5473      2.00000
     28     -12.5343      2.00000
     29     -12.4767      2.00000
     30     -12.4647      2.00000
     31     -12.3616      2.00000
     32     -12.2430      2.00000
     33     -12.2258      2.00000
     34     -12.2104      2.00000
     35     -12.1246      2.00000
     36     -12.0145      2.00000
     37     -11.1471      2.00000
     38     -11.1464      2.00000
     39     -11.0930      2.00000
     40     -10.7014      2.00000
     41      -0.7714      2.00000
     42      -0.7145      2.00000
     43      -0.7069      2.00000
     44      -0.6640      2.00000
     45       0.2990      2.00000
     46       0.3032      2.00000
     47       0.3354      2.00000
     48       0.3485      2.00000
     49       0.3526      2.00000
     50       0.3694      2.00000
     51       0.3735      2.00000
     52       0.4455      2.00000
     53       1.0333      2.00000
     54       1.0634      2.00000
     55       1.1212      2.00000
     56       1.3488      2.00000
     57       1.3639      2.00000
     58       1.4317      2.00000
     59       1.4390      2.00000
     60       1.4415      2.00000
     61       1.4698      2.00000
     62       1.5142      2.00000
     63       1.5179      2.00000
     64       1.5521      2.00000
     65       4.6561      0.00000
     66       4.7444      0.00000
     67       4.7541      0.00000
     68       5.2737      0.00000
     69       7.4380      0.00000
     70       7.4947      0.00000
     71       7.6686      0.00000
     72       7.7106      0.00000
     73       8.0405      0.00000
     74       8.1795      0.00000
     75       8.2692      0.00000
     76       8.8948      0.00000

 k-point     2 :       0.2500    0.0000    0.0000
  band No.  band energies     occupation 
      1     -30.9672      2.00000
      2     -30.9116      2.00000
      3     -30.6679      2.00000
      4     -30.6555      2.00000
      5     -30.5457      2.00000
      6     -30.5362      2.00000
      7     -30.0962      2.00000
      8     -30.0461      2.00000
      9     -15.1121      2.00000
     10     -14.9114      2.00000
     11     -14.9012      2.00000
     12     -14.8609      2.00000
     13     -14.2108      2.00000
     14     -13.9900      2.00000
     15     -13.9558      2.00000
     16     -13.8417      2.00000
     17     -13.2188      2.00000
     18     -13.1947      2.00000
     19     -13.0731      2.00000
     20     -12.9147      2.00000
     21     -12.8638      2.00000
     22     -12.8185      2.00000
     23     -12.7049      2.00000
     24     -12.6103      2.00000
     25     -12.6006      2.00000
     26     -12.5513      2.00000
     27     -12.5257      2.00000
     28     -12.5148      2.00000
     29     -12.4896      2.00000
     30     -12.3608      2.00000
     31     -12.2795      2.00000
     32     -12.2650      2.00000
     33     -12.1770      2.00000
     34     -12.1552      2.00000
     35     -12.0241      2.00000
     36     -11.9978      2.00000
     37     -11.3070      2.00000
     38     -11.2916      2.00000
     39     -11.2221      2.00000
     40     -10.7745      2.00000
     41      -0.5210      2.00000
     42      -0.4517      2.00000
     43      -0.4162      2.00000
     44      -0.3834      2.00000
     45       0.4031      2.00000
     46       0.4200      2.00000
     47       0.4561      2.00000
     48       0.4593      2.00000
     49       0.4981      2.00000
     50       0.5123      2.00000
     51       0.5173      2.00000
     52       0.5765      2.00000
     53       0.8444      2.00000
     54       0.8999      2.00000
     55       0.9719      2.00000
     56       1.0245      2.00000
     57       1.0961      2.00000
     58       1.1494      2.00000
     59       1.1605      2.00000
     60       1.2701      2.00000
     61       1.2718      2.00000
     62       1.2898      2.00000
     63       1.3396      2.00000
     64       1.3832      2.00000
     65       5.1577      0.00000
     66       5.1627      0.00000
     67       5.2488      0.00000
     68       5.9542      0.00000
     69       7.3007      0.00000
     70       7.5627      0.00000
     71       7.5962      0.00000
     72       7.8031      0.00000
     73       7.9744      0.00000
     74       8.0114      0.00000
     75       8.2618      0.00000
     76       8.6642      0.00000

 k-point     3 :       0.5000    0.0000    0.0000
  band No.  band energies     occupation 
      1     -30.9630      2.00000
      2     -30.9114      2.00000
      3     -30.6650      2.00000
      4     -30.6572      2.00000
      5     -30.5446      2.00000
      6     -30.5415      2.00000
      7     -30.0986      2.00000
      8     -30.0464      2.00000
      9     -14.9390      2.00000
     10     -14.6016      2.00000
     11     -14.5829      2.00000
     12     -14.5466      2.00000
     13     -14.4901      2.00000
     14     -14.4459      2.00000
     15     -14.4356      2.00000
     16     -14.3293      2.00000
     17     -13.1296      2.00000
     18     -13.0187      2.00000
     19     -12.9497      2.00000
     20     -12.8939      2.00000
     21     -12.8463      2.00000
     22     -12.8433      2.00000
     23     -12.7448      2.00000
     24     -12.7211      2.00000
     25     -12.5818      2.00000
     26     -12.5723      2.00000
     27     -12.5380      2.00000
     28     -12.5048      2.00000
     29     -12.5038      2.00000
     30     -12.2922      2.00000
     31     -12.2086      2.00000
     32     -12.1013      2.00000
     33     -12.0340      2.00000
     34     -11.8519      2.00000
     35     -11.8465      2.00000
     36     -11.6789      2.00000
     37     -11.6406      2.00000
     38     -11.6305      2.00000
     39     -11.4560      2.00000
     40     -10.8582      2.00000
     41       0.0761      2.00000
     42       0.1056      2.00000
     43       0.2028      2.00000
     44       0.2117      2.00000
     45       0.2517      2.00000
     46       0.2921      2.00000
     47       0.3123      2.00000
     48       0.3746      2.00000
     49       0.6616      2.00000
     50       0.6877      2.00000
     51       0.7347      2.00000
     52       0.7440      2.00000
     53       0.7524      2.00000
     54       0.7559      2.00000
     55       0.7839      2.00000
     56       0.8636      2.00000
     57       0.8713      2.00000
     58       0.8738      2.00000
     59       0.8793      2.00000
     60       0.8810      2.00000
     61       0.9074      2.00000
     62       0.9159      2.00000
     63       1.0443      2.00000
     64       1.1597      2.00000
     65       6.0677      0.00000
     66       6.1689      0.00000
     67       6.3510      0.00000
     68       6.4742      0.00000
     69       6.7165      0.00000
     70       6.7488      0.00000
     71       7.0754      0.00000
     72       7.4816      0.00000
     73       7.6292      0.00000
     74       7.8968      0.00000
     75       8.5569      0.00000
     76       8.5753      0.00000

 k-point     4 :       0.0000    0.2500    0.0000
  band No.  band energies     occupation 
      1     -30.9611      2.00000
      2     -30.9189      2.00000
      3     -30.6672      2.00000
      4     -30.6557      2.00000
      5     -30.5456      2.00000
      6     -30.5362      2.00000
      7     -30.0881      2.00000
      8     -30.0537      2.00000
      9     -15.0881      2.00000
     10     -14.9108      2.00000
     11     -14.8992      2.00000
     12     -14.8642      2.00000
     13     -14.2134      2.00000
     14     -13.9706      2.00000
     15     -13.9614      2.00000
     16     -13.8811      2.00000
     17     -13.2765      2.00000
     18     -13.1790      2.00000
     19     -13.0689      2.00000
     20     -12.8964      2.00000
     21     -12.8212      2.00000
     22     -12.7956      2.00000
     23     -12.7498      2.00000
     24     -12.6648      2.00000
     25     -12.6112      2.00000
     26     -12.5664      2.00000
     27     -12.5265      2.00000
     28     -12.5044      2.00000
     29     -12.4762      2.00000
     30     -12.3890      2.00000
     31     -12.3269      2.00000
     32     -12.2524      2.00000
     33     -12.1658      2.00000
     34     -12.0919      2.00000
     35     -12.0806      2.00000
     36     -11.8518      2.00000
     37     -11.3073      2.00000
     38     -11.2899      2.00000
     39     -11.2362      2.00000
     40     -10.7997      2.00000
     41      -0.5333      2.00000
     42      -0.4523      2.00000
     43      -0.4267      2.00000
     44      -0.3596      2.00000
[...]
      7     -30.0766      2.00000
      8     -30.0675      2.00000
      9     -14.9012      2.00000
     10     -14.7158      2.00000
     11     -14.6869      2.00000
     12     -14.6648      2.00000
     13     -14.4447      2.00000
     14     -14.2929      2.00000
     15     -14.2528      2.00000
     16     -14.2103      2.00000
     17     -13.2309      2.00000
     18     -13.1491      2.00000
     19     -12.9033      2.00000
     20     -12.8991      2.00000
     21     -12.8260      2.00000
     22     -12.8179      2.00000
     23     -12.8013      2.00000
     24     -12.7950      2.00000
     25     -12.6947      2.00000
     26     -12.5984      2.00000
     27     -12.5543      2.00000
     28     -12.5202      2.00000
     29     -12.3934      2.00000
     30     -12.3292      2.00000
     31     -12.3210      2.00000
     32     -12.2257      2.00000
     33     -11.9916      2.00000
     34     -11.9155      2.00000
     35     -11.7758      2.00000
     36     -11.6389      2.00000
     37     -11.4598      2.00000
     38     -11.4357      2.00000
     39     -11.4253      2.00000
     40     -10.9168      2.00000
     41      -0.2130      2.00000
     42      -0.1824      2.00000
     43      -0.0899      2.00000
     44      -0.0784      2.00000
     45       0.3286      2.00000
     46       0.4605      2.00000
     47       0.4826      2.00000
     48       0.5329      2.00000
     49       0.5950      2.00000
     50       0.6035      2.00000
     51       0.6485      2.00000
     52       0.7077      2.00000
     53       0.7282      2.00000
     54       0.7293      2.00000
     55       0.8166      2.00000
     56       0.8443      2.00000
     57       0.8791      2.00000
     58       0.9240      2.00000
     59       0.9642      2.00000
     60       0.9925      2.00000
     61       1.1402      2.00000
     62       1.1534      2.00000
     63       1.2905      2.00000
     64       1.3430      2.00000
     65       5.6219      0.00000
     66       5.8900      0.00000
     67       6.0927      0.00000
     68       6.5418      0.00000
     69       6.9953      0.00000
     70       7.0631      0.00000
     71       7.2035      0.00000
     72       7.6504      0.00000
     73       7.7220      0.00000
     74       8.0775      0.00000
     75       8.1487      0.00000
     76       8.2334      0.00000

 k-point    17 :       0.5000   -0.2500    0.2500
  band No.  band energies     occupation 
      1     -30.9375      2.00000
      2     -30.9372      2.00000
      3     -30.6565      2.00000
      4     -30.6564      2.00000
      5     -30.5478      2.00000
      6     -30.5478      2.00000
      7     -30.0766      2.00000
      8     -30.0686      2.00000
      9     -14.8210      2.00000
     10     -14.5353      2.00000
     11     -14.5302      2.00000
     12     -14.4968      2.00000
     13     -14.4552      2.00000
     14     -14.4196      2.00000
     15     -14.4193      2.00000
     16     -14.4177      2.00000
     17     -13.2334      2.00000
     18     -13.0828      2.00000
     19     -13.0065      2.00000
     20     -13.0048      2.00000
     21     -12.8688      2.00000
     22     -12.8651      2.00000
     23     -12.8153      2.00000
     24     -12.7912      2.00000
     25     -12.7131      2.00000
     26     -12.6911      2.00000
     27     -12.6576      2.00000
     28     -12.5274      2.00000
     29     -12.4209      2.00000
     30     -12.4026      2.00000
     31     -12.2503      2.00000
     32     -12.2471      2.00000
     33     -11.6990      2.00000
     34     -11.6976      2.00000
     35     -11.6244      2.00000
     36     -11.5693      2.00000
     37     -11.5605      2.00000
     38     -11.5349      2.00000
     39     -11.5268      2.00000
     40     -10.9163      2.00000
     41      -0.0258      2.00000
     42      -0.0238      2.00000
     43       0.0036      2.00000
     44       0.0463      2.00000
     45       0.1011      2.00000
     46       0.1112      2.00000
     47       0.1421      2.00000
     48       0.1763      2.00000
     49       0.6039      2.00000
     50       0.6574      2.00000
     51       0.7187      2.00000
     52       0.7360      2.00000
     53       0.7800      2.00000
     54       0.7835      2.00000
     55       0.8135      2.00000
     56       0.8310      2.00000
     57       0.9439      2.00000
     58       1.0703      2.00000
     59       1.1052      2.00000
     60       1.1181      2.00000
     61       1.1879      2.00000
     62       1.2557      2.00000
     63       1.3363      2.00000
     64       1.3546      2.00000
     65       6.3124      0.00000
     66       6.3228      0.00000
     67       6.4920      0.00000
     68       6.5164      0.00000
     69       7.0113      0.00000
     70       7.2108      0.00000
     71       7.5732      0.00000
     72       7.6767      0.00000
     73       7.6929      0.00000
     74       7.8033      0.00000
     75       7.8622      0.00000
     76       7.8817      0.00000

 k-point    18 :       0.0000    0.5000    0.5000
  band No.  band energies     occupation 
      1     -30.9575      2.00000
      2     -30.9120      2.00000
      3     -30.6757      2.00000
      4     -30.6564      2.00000
      5     -30.5472      2.00000
      6     -30.5313      2.00000
      7     -30.1026      2.00000
      8     -30.0457      2.00000
      9     -14.9359      2.00000
     10     -14.6737      2.00000
     11     -14.6675      2.00000
     12     -14.6369      2.00000
     13     -14.3412      2.00000
     14     -14.2495      2.00000
     15     -14.1828      2.00000
     16     -14.1601      2.00000
     17     -13.1972      2.00000
     18     -13.1768      2.00000
     19     -13.0961      2.00000
     20     -13.0945      2.00000
     21     -12.9002      2.00000
     22     -12.8747      2.00000
     23     -12.8120      2.00000
     24     -12.8090      2.00000
     25     -12.7888      2.00000
     26     -12.6262      2.00000
     27     -12.5788      2.00000
     28     -12.5728      2.00000
     29     -12.4791      2.00000
     30     -12.4760      2.00000
     31     -12.2730      2.00000
     32     -12.0495      2.00000
     33     -11.9046      2.00000
     34     -11.7755      2.00000
     35     -11.7187      2.00000
     36     -11.6449      2.00000
     37     -11.4643      2.00000
     38     -11.4608      2.00000
     39     -11.3350      2.00000
     40     -10.8235      2.00000
     41      -0.2909      2.00000
     42      -0.2273      2.00000
     43      -0.2121      2.00000
     44      -0.1536      2.00000
     45       0.1366      2.00000
     46       0.1411      2.00000
     47       0.3612      2.00000
     48       0.3631      2.00000
     49       0.4124      2.00000
     50       0.4514      2.00000
     51       0.4636      2.00000
     52       0.5387      2.00000
     53       0.8471      2.00000
     54       1.0537      2.00000
     55       1.0591      2.00000
     56       1.0691      2.00000
     57       1.0768      2.00000
     58       1.1014      2.00000
     59       1.1589      2.00000
     60       1.1836      2.00000
     61       1.3651      2.00000
     62       1.3652      2.00000
     63       1.3807      2.00000
     64       1.4407      2.00000
     65       5.7842      0.00000
     66       5.7851      0.00000
     67       6.9228      0.00000
     68       6.9293      0.00000
     69       7.2783      0.00000
     70       7.3894      0.00000
     71       7.4546      0.00000
     72       7.5493      0.00000
     73       7.5564      0.00000
     74       7.6077      0.00000
     75       7.6655      0.00000
     76       8.1295      0.00000


--------------------------------------------------------------------------------------------------------


 soft charge-density along one line, spin component           1
         0         1         2         3         4         5         6         7         8         9
 total charge-density along one line
 
 pseudopotential strength for first ion, spin component:           1
-11.812  -2.622  -0.000  -0.000   0.000  -0.000  -0.000   0.000
 -2.622  -1.837  -0.000  -0.000   0.000  -0.000  -0.000   0.000
 -0.000  -0.000 -15.126   0.000  -0.000 -14.839   0.000  -0.000
 -0.000  -0.000   0.000 -15.126  -0.000   0.000 -14.839  -0.000
  0.000   0.000  -0.000  -0.000 -15.126  -0.000  -0.000 -14.838
 -0.000  -0.000 -14.839   0.000  -0.000 -14.555   0.000  -0.000
 -0.000  -0.000   0.000 -14.839  -0.000   0.000 -14.555  -0.000
  0.000   0.000  -0.000  -0.000 -14.838  -0.000  -0.000 -14.555
 -0.000  -0.000   0.000   0.000  -0.000   0.000   0.000  -0.000
  0.000   0.000  -0.000  -0.000   0.000  -0.000  -0.000   0.000
 -0.000  -0.000   0.000  -0.000  -0.000   0.000  -0.000  -0.000
 -0.000  -0.000   0.000   0.000  -0.000   0.000   0.000  -0.000
  0.000   0.000   0.000  -0.000   0.000   0.000  -0.000   0.000
 -0.000  -0.000   0.000   0.000  -0.000   0.000   0.000  -0.000
  0.000   0.000  -0.000  -0.000   0.000  -0.000  -0.000   0.000
 -0.000  -0.000   0.000  -0.000  -0.000   0.000  -0.000  -0.000
 -0.000  -0.000   0.000   0.000  -0.000   0.000   0.000  -0.000
  0.000   0.000   0.000  -0.000   0.000   0.000  -0.000   0.000
 total augmentation occupancy for first ion, spin component:           1
  1.996  -0.015  -0.002  -0.002   0.004   0.002   0.002  -0.004   0.001  -0.000  -0.000   0.001   0.000  -0.001   0.000   0.000
 -0.015   0.594  -0.012  -0.012  -0.001   0.013   0.013  -0.000   0.022  -0.002  -0.001   0.022   0.001  -0.012   0.001   0.000
 -0.002  -0.012  11.930  -0.005   0.075 -10.255   0.007  -0.077   0.005  -0.044   0.008  -0.004   0.013  -0.003   0.024  -0.004
 -0.002  -0.012  -0.005  11.930   0.075   0.007 -10.255  -0.077  -0.004  -0.044  -0.015   0.005  -0.001   0.002   0.024   0.008
  0.004  -0.001   0.075   0.075  11.968  -0.077  -0.077 -10.288  -0.044  -0.005  -0.000  -0.044   0.000   0.024   0.003   0.001
  0.002   0.013 -10.255   0.007  -0.077  10.607  -0.009   0.079  -0.007   0.045  -0.008   0.003  -0.013   0.004  -0.025   0.004
  0.002   0.013   0.007 -10.255  -0.077  -0.009  10.607   0.079   0.003   0.045   0.015  -0.007   0.001  -0.002  -0.025  -0.008
 -0.004  -0.000  -0.077  -0.077 -10.288   0.079   0.079  10.634   0.046   0.005   0.001   0.046  -0.001  -0.025  -0.003  -0.001
  0.001   0.022   0.005  -0.004  -0.044  -0.007   0.003   0.046   2.477   0.037  -0.039   0.000   0.001  -1.347  -0.020   0.021
 -0.000  -0.002  -0.044  -0.044  -0.005   0.045   0.045   0.005   0.037   2.479  -0.001   0.037   0.001  -0.020  -1.348   0.000
 -0.000  -0.001   0.008  -0.015  -0.000  -0.008   0.015   0.001  -0.039  -0.001   9.109   0.018  -0.001   0.021   0.000  -5.028
  0.001   0.022  -0.004   0.005  -0.044   0.003  -0.007   0.046   0.000   0.037   0.018   2.477   0.034  -0.000  -0.020  -0.010
  0.000   0.001   0.013  -0.001   0.000  -0.013   0.001  -0.001   0.001   0.001  -0.001   0.034   9.110  -0.001  -0.001  -0.000
 -0.001  -0.012  -0.003   0.002   0.024   0.004  -0.002  -0.025  -1.347  -0.020   0.021  -0.000  -0.001   0.733   0.011  -0.012
  0.000   0.001   0.024   0.024   0.003  -0.025  -0.025  -0.003  -0.020  -1.348   0.000  -0.020  -0.001   0.011   0.734  -0.000
  0.000   0.000  -0.004   0.008   0.001   0.004  -0.008  -0.001   0.021   0.000  -5.028  -0.010  -0.000  -0.012  -0.000   2.780
 -0.001  -0.012   0.002  -0.003   0.024  -0.002   0.004  -0.025  -0.000  -0.020  -0.010  -1.347  -0.018   0.000   0.011   0.006
 -0.000  -0.000  -0.007   0.000  -0.002   0.007  -0.000   0.002  -0.001  -0.001  -0.000  -0.019  -5.028   0.000   0.000   0.000


------------------------ aborting loop because EDIFF is reached ----------------------------------------


    CHARGE:  cpu time    0.8480: real time    0.8473
    FORLOC:  cpu time    0.0200: real time    0.0207
    FORNL :  cpu time    4.4760: real time    4.4756
    STRESS:  cpu time    8.8280: real time    8.8310
    FORCOR:  cpu time    0.1600: real time    0.1616
    FORHAR:  cpu time    0.0520: real time    0.0504
    MIXING:  cpu time    0.0080: real time    0.0070
    OFIELD:  cpu time    0.0000: real time    0.0001

  FORCE on cell =-STRESS in cart. coord.  units (eV):
  Direction    XX          YY          ZZ          XY          YZ          ZX
  --------------------------------------------------------------------------------------
  Alpha Z   796.84036   796.84036   796.84036
  Ewald   -2838.86436 -2801.76978 -2801.76978     0.00000   -39.42114     0.00000
  Hartree   638.88113   651.46864   651.46864     0.00000   -21.67529     0.00000
  E(xc)    -536.51022  -536.43592  -536.43592     0.00000    -0.05102     0.00000
  Local     303.81947   254.47423   254.47423     0.00004    61.68715     0.00004
  n-local  -605.23903  -606.80515  -606.36440    -1.29330     0.71151    -0.00185
  augment    80.38368    80.52436    80.52436    -0.00005    -0.14133    -0.00005
  Kinetic  2160.33378  2164.21360  2164.16630     3.10079    -1.98730     0.01295
  Fock        0.00000     0.00000     0.00000     0.00000     0.00000     0.00000
  -------------------------------------------------------------------------------------
  Total      -0.35520     2.70706     2.70706     0.00000    -0.87743     0.00000
  in kB      -2.10250    16.02350    16.02350     0.00000    -5.19365     0.00000
  external pressure =        9.98 kB  Pullay stress =        0.00 kB


 VOLUME and BASIS-vectors are now :
 -----------------------------------------------------------------------------
  energy-cutoff  :      800.00
  volume of cell :      270.68
      direct lattice vectors                 reciprocal lattice vectors
     0.000000000  5.134209980  5.134209980    -0.097385966  0.097385966  0.097385966
     5.134209980  0.000000000  5.134209980     0.097385966 -0.097385966  0.097385966
     5.134209980  5.134209980  0.000000000     0.097385966  0.097385966 -0.097385966

  length of vectors
     7.260869386  7.260869386  7.260869386     0.168677442  0.168677442  0.168677442


 FORCES acting on ions
    electron-ion (+dipol)            ewald-force                    non-local-force                 convergence-correction
 -----------------------------------------------------------------------------------------------
   0.309E+01 -.488E+01 -.488E+01   -.298E+01 0.479E+01 0.479E+01   -.594E-01 0.241E-01 0.241E-01   -.606E-05 0.698E-05 0.698E-05
   -.801E+01 0.119E+02 0.119E+02   0.745E+01 -.113E+02 -.113E+02   0.520E+00 -.419E+00 -.419E+00   0.196E-04 -.538E-05 -.538E-05
   0.208E-09 -.368E+02 0.610E+01   0.125E-13 0.344E+02 -.580E+01   0.000E+00 0.210E+01 -.204E+00   -.285E-12 0.217E-04 -.130E-05
   0.953E-09 0.224E+02 -.427E+02   0.142E-13 -.216E+02 0.414E+02   0.000E+00 -.801E+00 0.227E+01   -.105E-11 -.158E-04 -.139E-04
   0.187E-09 0.610E+01 -.368E+02   0.141E-13 -.580E+01 0.344E+02   0.000E+00 -.204E+00 0.210E+01   -.265E-12 -.130E-05 0.217E-04
   0.974E-09 -.427E+02 0.224E+02   0.156E-13 0.414E+02 -.216E+02   0.000E+00 0.227E+01 -.801E+00   -.106E-11 -.139E-04 -.158E-04
   0.801E+01 0.119E+02 0.119E+02   -.745E+01 -.113E+02 -.113E+02   -.520E+00 -.419E+00 -.419E+00   -.196E-04 -.538E-05 -.538E-05
   -.309E+01 -.488E+01 -.488E+01   0.298E+01 0.479E+01 0.479E+01   0.594E-01 0.241E-01 0.241E-01   0.606E-05 0.698E-05 0.698E-05
   -.319E-07 0.553E+02 0.553E+02   0.196E-13 -.553E+02 -.553E+02   0.000E+00 -.202E+01 -.202E+01   0.147E-09 -.183E-04 -.183E-04
   -.163E-06 -.172E+02 -.172E+02   -.158E-13 0.162E+02 0.162E+02   -.434E-18 0.155E+01 0.155E+01   -.906E-10 0.153E-04 0.153E-04
   -.102E+02 0.320E+01 -.580E+01   0.953E+01 -.308E+01 0.550E+01   0.101E+01 -.183E+00 0.439E+00   0.861E-05 -.461E-05 0.405E-05
   0.102E+02 -.580E+01 0.320E+01   -.953E+01 0.550E+01 -.308E+01   -.101E+01 0.439E+00 -.183E+00   -.861E-05 0.405E-05 -.461E-05
   -.102E+02 -.580E+01 0.320E+01   0.953E+01 0.550E+01 -.308E+01   0.101E+01 0.439E+00 -.183E+00   0.861E-05 0.405E-05 -.461E-05
   0.102E+02 0.320E+01 -.580E+01   -.953E+01 -.308E+01 0.550E+01   -.101E+01 -.183E+00 0.439E+00   -.861E-05 -.461E-05 0.405E-05
   -.333E-07 0.421E+01 0.421E+01   -.122E-13 -.383E+01 -.383E+01   0.000E+00 -.589E+00 -.589E+00   0.133E-10 -.400E-05 -.400E-05
   0.660E-07 -.376E+01 -.376E+01   -.135E-13 0.279E+01 0.279E+01   0.000E+00 0.149E+01 0.149E+01   -.193E-10 0.676E-05 0.676E-05
 -----------------------------------------------------------------------------------------------
   -.624E-07 -.351E+01 -.351E+01   0.454E-14 0.977E-14 0.799E-14   0.000E+00 0.351E+01 0.351E+01   0.101E-09 -.744E-05 -.744E-05
 
 
 POSITION                                       TOTAL-FORCE (eV/Angst)
 -----------------------------------------------------------------------------------
      0.00000      0.00000      0.00000         0.050305     -0.071266     -0.071266
      0.00000      2.56710      2.56710        -0.042370      0.157327      0.157327
      2.56710      0.00000      2.56710         0.000000     -0.280274      0.101960
      2.56710      2.56710      5.13421         0.000000      0.025018      1.025524
      2.56710      2.56710      0.00000         0.000000      0.101960     -0.280274
      2.56710      5.13421      2.56710         0.000000      1.025524      0.025018
      5.13421      2.56710      2.56710         0.042370      0.157327      0.157327
      5.13421      5.13421      5.13421        -0.050305     -0.071266     -0.071266
      2.56710      2.92066      2.92066         0.000000     -2.050703     -2.050703
      2.56710      5.13421      5.13421         0.000000      0.531010      0.531010
      5.13421      2.56710      5.13421         0.348085     -0.059720      0.140547
      5.13421      5.13421      7.70131        -0.348085      0.140547     -0.059720
      5.13421      5.13421      2.56710         0.348085      0.140547     -0.059720
      5.13421      7.70131      5.13421        -0.348085     -0.059720      0.140547
      7.70131      5.13421      5.13421         0.000000     -0.213141     -0.213141
      7.70131      7.70131      7.70131        -0.000000      0.526828      0.526828
 -----------------------------------------------------------------------------------
    total drift:                               -0.000000      0.000002      0.000002


--------------------------------------------------------------------------------------------------------



  FREE ENERGIE OF THE ION-ELECTRON SYSTEM (eV)
  ---------------------------------------------------
  free  energy   TOTEN  =      -100.47867271 eV

  energy  without entropy=     -100.47867271  energy(sigma->0) =     -100.47867271
 


--------------------------------------------------------------------------------------------------------


    POTLOK:  cpu time    0.6760: real time    0.6756


--------------------------------------------------------------------------------------------------------


     LOOP+:  cpu time  219.5640: real time  219.6627
    4ORBIT:  cpu time    0.0000: real time    0.0000

 total amount of memory used by VASP on root node    97735. kBytes
========================================================================

   base      :      30000. kBytes
   nonl-proj :       9520. kBytes
   fftplans  :      26995. kBytes
   grid      :      11753. kBytes
   one-center:         31. kBytes
   wavefun   :      19436. kBytes
 
  
  
 General timing and accounting informations for this job:
 ========================================================
  
                  Total CPU time used (sec):      223.008
                            User time (sec):      221.500
                          System time (sec):        1.508
                         Elapsed time (sec):      223.119
  
                   Maximum memory used (kb):      199548.
                   Average memory used (kb):           0.
  
                          Minor page faults:       596536
                          Major page faults:            0
                 Voluntary context switches:           65
