nqpoint: 202    
npath: 2      
segment_nqpoint:
- 101
- 101
reciprocal_lattice:
- [  -0.19477193,   0.19477193,   0.19477193 ] # a*
- [   0.19477193,  -0.19477193,   0.19477193 ] # b*
- [   0.19477193,   0.19477193,  -0.19477193 ] # c*
natom: 2      
lattice:
- [     0.0000000000000000,     2.5671049901180245,     2.5671049901180245 ] # a
- [     2.5671049901180245,     0.0000000000000000,     2.5671049901180245 ] # b
- [     2.5671049901180245,     2.5671049901180245,     0.0000000000000000 ] # c
atoms:
- symbol: Sr # 1
  position: [  0.0000000000000000,  0.0000000000000000,  0.0000000000000000 ]
  mass: 87.620000
- symbol: O  # 2
  position: [  0.5000000000000000,  0.5000000000000000,  0.5000000000000000 ]
  mass: 15.999400
supercell_matrix:
- [    4,    0,    0 ]
- [    0,    4,    0 ]
- [    0,    0,    4 ]

phonon:
- q-position: [    0.5000000,    0.0000000,    0.5000000 ]
  distance:    0.0000000
  label: 'X'
  band:
  - # 1
    frequency:    1.4321334461
  - # 2
    frequency:    1.4321334461
  - # 3
    frequency:    4.9503357476
  - # 4
    frequency:   10.0328483992
  - # 5
    frequency:   10.0328483992
  - # 6
    frequency:   11.6223459518

- q-position: [    0.4950000,    0.0000000,    0.4950000 ]
  distance:    0.0019477
  band:
  - # 1
    frequency:    1.4336622724
  - # 2
    frequency:    1.4336622724
  - # 3
    frequency:    4.9512090593
  - # 4
    frequency:   10.0332377961
  - # 5
    frequency:   10.0332377961
  - # 6
    frequency:   11.6218948929

- q-position: [    0.4900000,    0.0000000,    0.4900000 ]
  distance:    0.0038954
  band:
  - # 1
    frequency:    1.4382297835
  - # 2
    frequency:    1.4382297835
  - # 3
    frequency:    4.9538233598
  - # 4
    frequency:   10.0344039610
  - # 5
    frequency:   10.0344039610
  - # 6
    frequency:   11.6205414036

- q-position: [    0.4850000,    0.0000000,    0.4850000 ]
  distance:    0.0058432
  band:
  - # 1
    frequency:    1.4457797501
  - # 2
    frequency:    1.4457797501
  - # 3
    frequency:    4.9581617955
  - # 4
    frequency:   10.0363408217
  - # 5
    frequency:   10.0363408217
  - # 6
    frequency:   11.6182845479

- q-position: [    0.4800000,    0.0000000,    0.4800000 ]
  distance:    0.0077909
  band:
  - # 1
    frequency:    1.4562206437
  - # 2
    frequency:    1.4562206437
  - # 3
    frequency:    4.9641964445
  - # 4
    frequency:   10.0390382752
  - # 5
    frequency:   10.0390382752
  - # 6
    frequency:   11.6151227723

- q-position: [    0.4750000,    0.0000000,    0.4750000 ]
  distance:    0.0097386
  band:
  - # 1
    frequency:    1.4694287271
  - # 2
    frequency:    1.4694287271
  - # 3
    frequency:    4.9718885643
  - # 4
    frequency:   10.0424822141
  - # 5
    frequency:   10.0424822141
  - # 6
    frequency:   11.6110539158

- q-position: [    0.4700000,    0.0000000,    0.4700000 ]
  distance:    0.0116863
  band:
  - # 1
    frequency:    1.4852520298
  - # 2
    frequency:    1.4852520298
  - # 3
    frequency:    4.9811889304
  - # 4
    frequency:   10.0466545635
  - # 5
    frequency:   10.0466545635
  - # 6
    frequency:   11.6060752240

- q-position: [    0.4650000,    0.0000000,    0.4650000 ]
  distance:    0.0136340
  band:
  - # 1
    frequency:    1.5035149173
  - # 2
    frequency:    1.5035149173
  - # 3
    frequency:    4.9920382607
  - # 4
    frequency:   10.0515333294
  - # 5
    frequency:   10.0515333294
  - # 6
    frequency:   11.6001833668

- q-position: [    0.4600000,    0.0000000,    0.4600000 ]
  distance:    0.0155818
  band:
  - # 1
    frequency:    1.5240229544
  - # 2
    frequency:    1.5240229544
  - # 3
    frequency:    5.0043677152
  - # 4
    frequency:   10.0570926580
  - # 5
    frequency:   10.0570926580
  - # 6
    frequency:   11.5933744615

- q-position: [    0.4550000,    0.0000000,    0.4550000 ]
  distance:    0.0175295
  band:
  - # 1
    frequency:    1.5465677834
  - # 2
    frequency:    1.5465677834
  - # 3
    frequency:    5.0180994630
  - # 4
    frequency:   10.0633029076
  - # 5
    frequency:   10.0633029076
  - # 6
    frequency:   11.5856440990

- q-position: [    0.4500000,    0.0000000,    0.4500000 ]
  distance:    0.0194772
  band:
  - # 1
    frequency:    1.5709317822
  - # 2
    frequency:    1.5709317822
  - # 3
    frequency:    5.0331473045
  - # 4
    frequency:   10.0701307318
  - # 5
    frequency:   10.0701307318
  - # 6
    frequency:   11.5769873759

- q-position: [    0.4450000,    0.0000000,    0.4450000 ]
  distance:    0.0214249
  band:
  - # 1
    frequency:    1.5968923293
  - # 2
    frequency:    1.5968923293
  - # 3
    frequency:    5.0494173391
  - # 4
    frequency:   10.0775391764
  - # 5
    frequency:   10.0775391764
  - # 6
    frequency:   11.5673989303

- q-position: [    0.4400000,    0.0000000,    0.4400000 ]
  distance:    0.0233726
  band:
  - # 1
    frequency:    1.6242255613
  - # 2
    frequency:    1.6242255613
  - # 3
    frequency:    5.0668086659
  - # 4
    frequency:   10.0854877884
  - # 5
    frequency:   10.0854877884
  - # 6
    frequency:   11.5568729831

- q-position: [    0.4350000,    0.0000000,    0.4350000 ]
  distance:    0.0253204
  band:
  - # 1
    frequency:    1.6527095656
  - # 2
    frequency:    1.6527095656
  - # 3
    frequency:    5.0852141059
  - # 4
    frequency:   10.0939327393
  - # 5
    frequency:   10.0939327393
  - # 6
    frequency:   11.5454033847

- q-position: [    0.4300000,    0.0000000,    0.4300000 ]
  distance:    0.0272681
  band:
  - # 1
    frequency:    1.6821269997
  - # 2
    frequency:    1.6821269997
  - # 3
    frequency:    5.1045209368
  - # 4
    frequency:   10.1028269614
  - # 5
    frequency:   10.1028269614
  - # 6
    frequency:   11.5329836669

- q-position: [    0.4250000,    0.0000000,    0.4250000 ]
  distance:    0.0292158
  band:
  - # 1
    frequency:    1.7122671604
  - # 2
    frequency:    1.7122671604
  - # 3
    frequency:    5.1246116269
  - # 4
    frequency:   10.1121202984
  - # 5
    frequency:   10.1121202984
  - # 6
    frequency:   11.5196071004

- q-position: [    0.4200000,    0.0000000,    0.4200000 ]
  distance:    0.0311635
  band:
  - # 1
    frequency:    1.7429275532
  - # 2
    frequency:    1.7429275532
  - # 3
    frequency:    5.1453645618
  - # 4
    frequency:   10.1217596703
  - # 5
    frequency:   10.1217596703
  - # 6
    frequency:   11.5052667587

- q-position: [    0.4150000,    0.0000000,    0.4150000 ]
  distance:    0.0331112
  band:
  - # 1
    frequency:    1.7739150196
  - # 2
    frequency:    1.7739150196
  - # 3
    frequency:    5.1666547531
  - # 4
    frequency:   10.1316892520
  - # 5
    frequency:   10.1316892520
  - # 6
    frequency:   11.4899555874

- q-position: [    0.4100000,    0.0000000,    0.4100000 ]
  distance:    0.0350589
  band:
  - # 1
    frequency:    1.8050464918
  - # 2
    frequency:    1.8050464918
  - # 3
    frequency:    5.1883545234
  - # 4
    frequency:   10.1418506656
  - # 5
    frequency:   10.1418506656
  - # 6
    frequency:   11.4736664811

- q-position: [    0.4050000,    0.0000000,    0.4050000 ]
  distance:    0.0370067
  band:
  - # 1
    frequency:    1.8361494370
  - # 2
    frequency:    1.8361494370
  - # 3
    frequency:    5.2103341590
  - # 4
    frequency:   10.1521831872
  - # 5
    frequency:   10.1521831872
  - # 6
    frequency:   11.4563923656

- q-position: [    0.4000000,    0.0000000,    0.4000000 ]
  distance:    0.0389544
  band:
  - # 1
    frequency:    1.8670620525
  - # 2
    frequency:    1.8670620525
  - # 3
    frequency:    5.2324625283
  - # 4
    frequency:   10.1626239658
  - # 5
    frequency:   10.1626239658
  - # 6
    frequency:   11.4381262884

- q-position: [    0.3950000,    0.0000000,    0.3950000 ]
  distance:    0.0409021
  band:
  - # 1
    frequency:    1.8976332646
  - # 2
    frequency:    1.8976332646
  - # 3
    frequency:    5.2546076586
  - # 4
    frequency:   10.1731082558
  - # 5
    frequency:   10.1731082558
  - # 6
    frequency:   11.4188615145

- q-position: [    0.3900000,    0.0000000,    0.3900000 ]
  distance:    0.0428498
  band:
  - # 1
    frequency:    1.9277225782
  - # 2
    frequency:    1.9277225782
  - # 3
    frequency:    5.2766372703
  - # 4
    frequency:   10.1835696611
  - # 5
    frequency:   10.1835696611
  - # 6
    frequency:   11.3985916314

- q-position: [    0.3850000,    0.0000000,    0.3850000 ]
  distance:    0.0447975
  band:
  - # 1
    frequency:    1.9571998131
  - # 2
    frequency:    1.9571998131
  - # 3
    frequency:    5.2984192660
  - # 4
    frequency:   10.1939403895
  - # 5
    frequency:   10.1939403895
  - # 6
    frequency:   11.3773106591

- q-position: [    0.3800000,    0.0000000,    0.3800000 ]
  distance:    0.0467453
  band:
  - # 1
    frequency:    1.9859447612
  - # 2
    frequency:    1.9859447612
  - # 3
    frequency:    5.3198221725
  - # 4
    frequency:   10.2041515186
  - # 5
    frequency:   10.2041515186
  - # 6
    frequency:   11.3550131696

- q-position: [    0.3750000,    0.0000000,    0.3750000 ]
  distance:    0.0486930
  band:
  - # 1
    frequency:    2.0138467870
  - # 2
    frequency:    2.0138467870
  - # 3
    frequency:    5.3407155364
  - # 4
    frequency:   10.2141332690
  - # 5
    frequency:   10.2141332690
  - # 6
    frequency:   11.3316944115

- q-position: [    0.3700000,    0.0000000,    0.3700000 ]
  distance:    0.0506407
  band:
  - # 1
    frequency:    2.0408043924
  - # 2
    frequency:    2.0408043924
  - # 3
    frequency:    5.3609702731
  - # 4
    frequency:   10.2238152864
  - # 5
    frequency:   10.2238152864
  - # 6
    frequency:   11.3073504433

- q-position: [    0.3650000,    0.0000000,    0.3650000 ]
  distance:    0.0525884
  band:
  - # 1
    frequency:    2.0667247602
  - # 2
    frequency:    2.0667247602
  - # 3
    frequency:    5.3804589703
  - # 4
    frequency:   10.2331269292
  - # 5
    frequency:   10.2331269292
  - # 6
    frequency:   11.2819782728

- q-position: [    0.3600000,    0.0000000,    0.3600000 ]
  distance:    0.0545361
  band:
  - # 1
    frequency:    2.0915232891
  - # 2
    frequency:    2.0915232891
  - # 3
    frequency:    5.3990561473
  - # 4
    frequency:   10.2419975616
  - # 5
    frequency:   10.2419975616
  - # 6
    frequency:   11.2555760029

- q-position: [    0.3550000,    0.0000000,    0.3550000 ]
  distance:    0.0564839
  band:
  - # 1
    frequency:    2.1151231272
  - # 2
    frequency:    2.1151231272
  - # 3
    frequency:    5.4166384720
  - # 4
    frequency:   10.2503568496
  - # 5
    frequency:   10.2503568496
  - # 6
    frequency:   11.2281429838

- q-position: [    0.3500000,    0.0000000,    0.3500000 ]
  distance:    0.0584316
  band:
  - # 1
    frequency:    2.1374547114
  - # 2
    frequency:    2.1374547114
  - # 3
    frequency:    5.4330849380
  - # 4
    frequency:   10.2581350596
  - # 5
    frequency:   10.2581350596
  - # 6
    frequency:   11.1996799706

- q-position: [    0.3450000,    0.0000000,    0.3450000 ]
  distance:    0.0603793
  band:
  - # 1
    frequency:    2.1584553177
  - # 2
    frequency:    2.1584553177
  - # 3
    frequency:    5.4482770046
  - # 4
    frequency:   10.2652633571
  - # 5
    frequency:   10.2652633571
  - # 6
    frequency:   11.1701892854

- q-position: [    0.3400000,    0.0000000,    0.3400000 ]
  distance:    0.0623270
  band:
  - # 1
    frequency:    2.1780686242
  - # 2
    frequency:    2.1780686242
  - # 3
    frequency:    5.4620987023
  - # 4
    frequency:   10.2716741049
  - # 5
    frequency:   10.2716741049
  - # 6
    frequency:   11.1396749836

- q-position: [    0.3350000,    0.0000000,    0.3350000 ]
  distance:    0.0642747
  band:
  - # 1
    frequency:    2.1962442906
  - # 2
    frequency:    2.1962442906
  - # 3
    frequency:    5.4744367062
  - # 4
    frequency:   10.2773011582
  - # 5
    frequency:   10.2773011582
  - # 6
    frequency:   11.1081430225

- q-position: [    0.3300000,    0.0000000,    0.3300000 ]
  distance:    0.0662225
  band:
  - # 1
    frequency:    2.2129375551
  - # 2
    frequency:    2.2129375551
  - # 3
    frequency:    5.4851803825
  - # 4
    frequency:   10.2820801568
  - # 5
    frequency:   10.2820801568
  - # 6
    frequency:   11.0756014316

- q-position: [    0.3250000,    0.0000000,    0.3250000 ]
  distance:    0.0681702
  band:
  - # 1
    frequency:    2.2281088492
  - # 2
    frequency:    2.2281088492
  - # 3
    frequency:    5.4942218085
  - # 4
    frequency:   10.2859488116
  - # 5
    frequency:   10.2859488116
  - # 6
    frequency:   11.0420604829

- q-position: [    0.3200000,    0.0000000,    0.3200000 ]
  distance:    0.0701179
  band:
  - # 1
    frequency:    2.2417234316
  - # 2
    frequency:    2.2417234316
  - # 3
    frequency:    5.5014557735
  - # 4
    frequency:   10.2888471852
  - # 5
    frequency:   10.2888471852
  - # 6
    frequency:   11.0075328595

- q-position: [    0.3150000,    0.0000000,    0.3150000 ]
  distance:    0.0720656
  band:
  - # 1
    frequency:    2.2537510409
  - # 2
    frequency:    2.2537510409
  - # 3
    frequency:    5.5067797601
  - # 4
    frequency:   10.2907179647
  - # 5
    frequency:   10.2907179647
  - # 6
    frequency:   10.9720338207

- q-position: [    0.3100000,    0.0000000,    0.3100000 ]
  distance:    0.0740133
  band:
  - # 1
    frequency:    2.2641655676
  - # 2
    frequency:    2.2641655676
  - # 3
    frequency:    5.5100939130
  - # 4
    frequency:   10.2915067257
  - # 5
    frequency:   10.2915067257
  - # 6
    frequency:   10.9355813610

- q-position: [    0.3050000,    0.0000000,    0.3050000 ]
  distance:    0.0759611
  band:
  - # 1
    frequency:    2.2729447441
  - # 2
    frequency:    2.2729447441
  - # 3
    frequency:    5.5113009976
  - # 4
    frequency:   10.2911621879
  - # 5
    frequency:   10.2911621879
  - # 6
    frequency:   10.8981963618

- q-position: [    0.3000000,    0.0000000,    0.3000000 ]
  distance:    0.0779088
  band:
  - # 1
    frequency:    2.2800698541
  - # 2
    frequency:    2.2800698541
  - # 3
    frequency:    5.5103063526
  - # 4
    frequency:   10.2896364584
  - # 5
    frequency:   10.2896364584
  - # 6
    frequency:   10.8599027321

- q-position: [    0.2950000,    0.0000000,    0.2950000 ]
  distance:    0.0798565
  band:
  - # 1
    frequency:    2.2855254588
  - # 2
    frequency:    2.2855254588
  - # 3
    frequency:    5.5070178405
  - # 4
    frequency:   10.2868852658
  - # 5
    frequency:   10.2868852658
  - # 6
    frequency:   10.8207275361

- q-position: [    0.2900000,    0.0000000,    0.2900000 ]
  distance:    0.0818042
  band:
  - # 1
    frequency:    2.2892991417
  - # 2
    frequency:    2.2892991417
  - # 3
    frequency:    5.5013458006
  - # 4
    frequency:   10.2828681807
  - # 5
    frequency:   10.2828681807
  - # 6
    frequency:   10.7807011050

- q-position: [    0.2850000,    0.0000000,    0.2850000 ]
  distance:    0.0837519
  band:
  - # 1
    frequency:    2.2913812698
  - # 2
    frequency:    2.2913812698
  - # 3
    frequency:    5.4932030078
  - # 4
    frequency:   10.2775488246
  - # 5
    frequency:   10.2775488246
  - # 6
    frequency:   10.7398571295

- q-position: [    0.2800000,    0.0000000,    0.2800000 ]
  distance:    0.0856997
  band:
  - # 1
    frequency:    2.2917647712
  - # 2
    frequency:    2.2917647712
  - # 3
    frequency:    5.4825046418
  - # 4
    frequency:   10.2708950657
  - # 5
    frequency:   10.2708950657
  - # 6
    frequency:   10.6982327300

- q-position: [    0.2750000,    0.0000000,    0.2750000 ]
  distance:    0.0876474
  band:
  - # 1
    frequency:    2.2904449287
  - # 2
    frequency:    2.2904449287
  - # 3
    frequency:    5.4691682706
  - # 4
    frequency:   10.2628792004
  - # 5
    frequency:   10.2628792004
  - # 6
    frequency:   10.6558685029

- q-position: [    0.2700000,    0.0000000,    0.2700000 ]
  distance:    0.0895951
  band:
  - # 1
    frequency:    2.2874191886
  - # 2
    frequency:    2.2874191886
  - # 3
    frequency:    5.4531138512
  - # 4
    frequency:   10.2534781222
  - # 5
    frequency:   10.2534781222
  - # 6
    frequency:   10.6128085372

- q-position: [    0.2650000,    0.0000000,    0.2650000 ]
  distance:    0.0915428
  band:
  - # 1
    frequency:    2.2826869843
  - # 2
    frequency:    2.2826869843
  - # 3
    frequency:    5.4342637524
  - # 4
    frequency:   10.2426734750
  - # 5
    frequency:   10.2426734750
  - # 6
    frequency:   10.5691004010

- q-position: [    0.2600000,    0.0000000,    0.2600000 ]
  distance:    0.0934905
  band:
  - # 1
    frequency:    2.2762495735
  - # 2
    frequency:    2.2762495735
  - # 3
    frequency:    5.4125428018
  - # 4
    frequency:   10.2304517926
  - # 5
    frequency:   10.2304517926
  - # 6
    frequency:   10.5247950950

- q-position: [    0.2550000,    0.0000000,    0.2550000 ]
  distance:    0.0954382
  band:
  - # 1
    frequency:    2.2681098895
  - # 2
    frequency:    2.2681098895
  - # 3
    frequency:    5.3878783605
  - # 4
    frequency:   10.2168046234
  - # 5
    frequency:   10.2168046234
  - # 6
    frequency:   10.4799469687

- q-position: [    0.2500000,    0.0000000,    0.2500000 ]
  distance:    0.0973860
  band:
  - # 1
    frequency:    2.2582724051
  - # 2
    frequency:    2.2582724051
  - # 3
    frequency:    5.3602004266
  - # 4
    frequency:   10.2017286396
  - # 5
    frequency:   10.2017286396
  - # 6
    frequency:   10.4346136005

- q-position: [    0.2450000,    0.0000000,    0.2450000 ]
  distance:    0.0993337
  band:
  - # 1
    frequency:    2.2467430088
  - # 2
    frequency:    2.2467430088
  - # 3
    frequency:    5.3294417709
  - # 4
    frequency:   10.1852257312
  - # 5
    frequency:   10.1852257312
  - # 6
    frequency:   10.3888556382

- q-position: [    0.2400000,    0.0000000,    0.2400000 ]
  distance:    0.1012814
  band:
  - # 1
    frequency:    2.2335288931
  - # 2
    frequency:    2.2335288931
  - # 3
    frequency:    5.2955381041
  - # 4
    frequency:   10.1673030853
  - # 5
    frequency:   10.1673030853
  - # 6
    frequency:   10.3427366006

- q-position: [    0.2350000,    0.0000000,    0.2350000 ]
  distance:    0.1032291
  band:
  - # 1
    frequency:    2.2186384539
  - # 2
    frequency:    2.2186384539
  - # 3
    frequency:    5.2584282756
  - # 4
    frequency:   10.1479732481
  - # 5
    frequency:   10.1479732481
  - # 6
    frequency:   10.2963226395

- q-position: [    0.2300000,    0.0000000,    0.2300000 ]
  distance:    0.1051768
  band:
  - # 1
    frequency:    2.2020812012
  - # 2
    frequency:    2.2020812012
  - # 3
    frequency:    5.2180545045
  - # 4
    frequency:   10.1272541723
  - # 5
    frequency:   10.1272541723
  - # 6
    frequency:   10.2496822648

- q-position: [    0.2250000,    0.0000000,    0.2250000 ]
  distance:    0.1071246
  band:
  - # 1
    frequency:    2.1838676797
  - # 2
    frequency:    2.1838676797
  - # 3
    frequency:    5.1743626381
  - # 4
    frequency:   10.1051692475
  - # 5
    frequency:   10.1051692475
  - # 6
    frequency:   10.2028860334

- q-position: [    0.2200000,    0.0000000,    0.2200000 ]
  distance:    0.1090723
  band:
  - # 1
    frequency:    2.1640094003
  - # 2
    frequency:    2.1640094003
  - # 3
    frequency:    5.1273024379
  - # 4
    frequency:   10.0817473145
  - # 5
    frequency:   10.0817473145
  - # 6
    frequency:   10.1560062061

- q-position: [    0.2150000,    0.0000000,    0.2150000 ]
  distance:    0.1110200
  band:
  - # 1
    frequency:    2.1425187801
  - # 2
    frequency:    2.1425187801
  - # 3
    frequency:    5.0768278864
  - # 4
    frequency:   10.0570226619
  - # 5
    frequency:   10.0570226619
  - # 6
    frequency:   10.1091163761

- q-position: [    0.2100000,    0.0000000,    0.2100000 ]
  distance:    0.1129677
  band:
  - # 1
    frequency:    2.1194090934
  - # 2
    frequency:    2.1194090934
  - # 3
    frequency:    5.0228975114
  - # 4
    frequency:   10.0310350065
  - # 5
    frequency:   10.0310350065
  - # 6
    frequency:   10.0622910747

- q-position: [    0.2050000,    0.0000000,    0.2050000 ]
  distance:    0.1149154
  band:
  - # 1
    frequency:    2.0946944300
  - # 2
    frequency:    2.0946944300
  - # 3
    frequency:    4.9654747209
  - # 4
    frequency:   10.0038294554
  - # 5
    frequency:   10.0038294554
  - # 6
    frequency:   10.0156053606

- q-position: [    0.2000000,    0.0000000,    0.2000000 ]
  distance:    0.1168632
  band:
  - # 1
    frequency:    2.0683896640
  - # 2
    frequency:    2.0683896640
  - # 3
    frequency:    4.9045281425
  - # 4
    frequency:    9.9691343983
  - # 5
    frequency:    9.9754564500
  - # 6
    frequency:    9.9754564500

- q-position: [    0.1950000,    0.0000000,    0.1950000 ]
  distance:    0.1188109
  band:
  - # 1
    frequency:    2.0405104299
  - # 2
    frequency:    2.0405104299
  - # 3
    frequency:    4.8400319589
  - # 4
    frequency:    9.9229530350
  - # 5
    frequency:    9.9459716919
  - # 6
    frequency:    9.9459716919

- q-position: [    0.1900000,    0.0000000,    0.1900000 ]
  distance:    0.1207586
  band:
  - # 1
    frequency:    2.0110731078
  - # 2
    frequency:    2.0110731078
  - # 3
    frequency:    4.7719662340
  - # 4
    frequency:    9.8771353823
  - # 5
    frequency:    9.9154360497
  - # 6
    frequency:    9.9154360497

- q-position: [    0.1850000,    0.0000000,    0.1850000 ]
  distance:    0.1227063
  band:
  - # 1
    frequency:    1.9800948165
  - # 2
    frequency:    1.9800948165
  - # 3
    frequency:    4.7003172189
  - # 4
    frequency:    9.8317544101
  - # 5
    frequency:    9.8839154455
  - # 6
    frequency:    9.8839154455

- q-position: [    0.1800000,    0.0000000,    0.1800000 ]
  distance:    0.1246540
  band:
  - # 1
    frequency:    1.9475934145
  - # 2
    frequency:    1.9475934145
  - # 3
    frequency:    4.6250776334
  - # 4
    frequency:    9.7868815624
  - # 5
    frequency:    9.8514807229
  - # 6
    frequency:    9.8514807229

- q-position: [    0.1750000,    0.0000000,    0.1750000 ]
  distance:    0.1266018
  band:
  - # 1
    frequency:    1.9135875092
  - # 2
    frequency:    1.9135875092
  - # 3
    frequency:    4.5462469145
  - # 4
    frequency:    9.7425863995
  - # 5
    frequency:    9.8182074925
  - # 6
    frequency:    9.8182074925

- q-position: [    0.1700000,    0.0000000,    0.1700000 ]
  distance:    0.1285495
  band:
  - # 1
    frequency:    1.8780964730
  - # 2
    frequency:    1.8780964730
  - # 3
    frequency:    4.4638314249
  - # 4
    frequency:    9.6989362745
  - # 5
    frequency:    9.7841759583
  - # 6
    frequency:    9.7841759583

- q-position: [    0.1650000,    0.0000000,    0.1650000 ]
  distance:    0.1304972
  band:
  - # 1
    frequency:    1.8411404671
  - # 2
    frequency:    1.8411404671
  - # 3
    frequency:    4.3778446192
  - # 4
    frequency:    9.6559960489
  - # 5
    frequency:    9.7494707209
  - # 6
    frequency:    9.7494707209

- q-position: [    0.1600000,    0.0000000,    0.1600000 ]
  distance:    0.1324449
  band:
  - # 1
    frequency:    1.8027404726
  - # 2
    frequency:    1.8027404726
  - # 3
    frequency:    4.2883071605
  - # 4
    frequency:    9.6138278513
  - # 5
    frequency:    9.7141805596
  - # 6
    frequency:    9.7141805596

- q-position: [    0.1550000,    0.0000000,    0.1550000 ]
  distance:    0.1343926
  band:
  - # 1
    frequency:    1.7629183276
  - # 2
    frequency:    1.7629183276
  - # 3
    frequency:    4.1952469876
  - # 4
    frequency:    9.5724908819
  - # 5
    frequency:    9.6783981916
  - # 6
    frequency:    9.6783981916

- q-position: [    0.1500000,    0.0000000,    0.1500000 ]
  distance:    0.1363404
  band:
  - # 1
    frequency:    1.7216967718
  - # 2
    frequency:    1.7216967718
  - # 3
    frequency:    4.0986993301
  - # 4
    frequency:    9.5320412643
  - # 5
    frequency:    9.6422200091
  - # 6
    frequency:    9.6422200091

- q-position: [    0.1450000,    0.0000000,    0.1450000 ]
  distance:    0.1382881
  band:
  - # 1
    frequency:    1.6790994959
  - # 2
    frequency:    1.6790994959
  - # 3
    frequency:    3.9987066718
  - # 4
    frequency:    9.4925319443
  - # 5
    frequency:    9.6057457925
  - # 6
    frequency:    9.6057457925

- q-position: [    0.1400000,    0.0000000,    0.1400000 ]
  distance:    0.1402358
  band:
  - # 1
    frequency:    1.6351511972
  - # 2
    frequency:    1.6351511972
  - # 3
    frequency:    3.8953186656
  - # 4
    frequency:    9.4540126349
  - # 5
    frequency:    9.5690784018
  - # 6
    frequency:    9.5690784018

- q-position: [    0.1350000,    0.0000000,    0.1350000 ]
  distance:    0.1421835
  band:
  - # 1
    frequency:    1.5898776398
  - # 2
    frequency:    1.5898776398
  - # 3
    frequency:    3.7885919993
  - # 4
    frequency:    9.4165298037
  - # 5
    frequency:    9.5323234440
  - # 6
    frequency:    9.5323234440

- q-position: [    0.1300000,    0.0000000,    0.1300000 ]
  distance:    0.1441312
  band:
  - # 1
    frequency:    1.5433057188
  - # 2
    frequency:    1.5433057188
  - # 3
    frequency:    3.6785902208
  - # 4
    frequency:    9.3801267008
  - # 5
    frequency:    9.4955889183
  - # 6
    frequency:    9.4955889183

- q-position: [    0.1250000,    0.0000000,    0.1250000 ]
  distance:    0.1460789
  band:
  - # 1
    frequency:    1.4954635280
  - # 2
    frequency:    1.4954635280
  - # 3
    frequency:    3.5653835226
  - # 4
    frequency:    9.3448434212
  - # 5
    frequency:    9.4589848396
  - # 6
    frequency:    9.4589848396

- q-position: [    0.1200000,    0.0000000,    0.1200000 ]
  distance:    0.1480267
  band:
  - # 1
    frequency:    1.4463804294
  - # 2
    frequency:    1.4463804294
  - # 3
    frequency:    3.4490484949
  - # 4
    frequency:    9.3107169975
  - # 5
    frequency:    9.4226228394
  - # 6
    frequency:    9.4226228394

- q-position: [    0.1150000,    0.0000000,    0.1150000 ]
  distance:    0.1499744
  band:
  - # 1
    frequency:    1.3960871246
  - # 2
    frequency:    1.3960871246
  - # 3
    frequency:    3.3296678498
  - # 4
    frequency:    9.2777815185
  - # 5
    frequency:    9.3866157474
  - # 6
    frequency:    9.3866157474

- q-position: [    0.1100000,    0.0000000,    0.1100000 ]
  distance:    0.1519221
  band:
  - # 1
    frequency:    1.3446157258
  - # 2
    frequency:    1.3446157258
  - # 3
    frequency:    3.2073301249
  - # 4
    frequency:    9.2460682656
  - # 5
    frequency:    9.3510771522
  - # 6
    frequency:    9.3510771522

- q-position: [    0.1050000,    0.0000000,    0.1050000 ]
  distance:    0.1538698
  band:
  - # 1
    frequency:    1.2919998256
  - # 2
    frequency:    1.2919998256
  - # 3
    frequency:    3.0821293696
  - # 4
    frequency:    9.2156058652
  - # 5
    frequency:    9.3161209459
  - # 6
    frequency:    9.3161209459

- q-position: [    0.1000000,    0.0000000,    0.1000000 ]
  distance:    0.1558175
  band:
  - # 1
    frequency:    1.2382745644
  - # 2
    frequency:    1.2382745644
  - # 3
    frequency:    2.9541648214
  - # 4
    frequency:    9.1864204492
  - # 5
    frequency:    9.2818608511
  - # 6
    frequency:    9.2818608511

- q-position: [    0.0950000,    0.0000000,    0.0950000 ]
  distance:    0.1577653
  band:
  - # 1
    frequency:    1.1834766929
  - # 2
    frequency:    1.1834766929
  - # 3
    frequency:    2.8235405765
  - # 4
    frequency:    9.1585358206
  - # 5
    frequency:    9.2484099345
  - # 6
    frequency:    9.2484099345

- q-position: [    0.0900000,    0.0000000,    0.0900000 ]
  distance:    0.1597130
  band:
  - # 1
    frequency:    1.1276446295
  - # 2
    frequency:    1.1276446295
  - # 3
    frequency:    2.6903652585
  - # 4
    frequency:    9.1319736188
  - # 5
    frequency:    9.2158801087
  - # 6
    frequency:    9.2158801087

- q-position: [    0.0850000,    0.0000000,    0.0850000 ]
  distance:    0.1616607
  band:
  - # 1
    frequency:    1.0708185099
  - # 2
    frequency:    1.0708185099
  - # 3
    frequency:    2.5547516906
  - # 4
    frequency:    9.1067534833
  - # 5
    frequency:    9.1843816253
  - # 6
    frequency:    9.1843816253

- q-position: [    0.0800000,    0.0000000,    0.0800000 ]
  distance:    0.1636084
  band:
  - # 1
    frequency:    1.0130402283
  - # 2
    frequency:    1.0130402283
  - # 3
    frequency:    2.4168165735
  - # 4
    frequency:    9.0828932094
  - # 5
    frequency:    9.1540225613
  - # 6
    frequency:    9.1540225613

- q-position: [    0.0750000,    0.0000000,    0.0750000 ]
  distance:    0.1655561
  band:
  - # 1
    frequency:    0.9543534668
  - # 2
    frequency:    0.9543534668
  - # 3
    frequency:    2.2766801714
  - # 4
    frequency:    9.0604088972
  - # 5
    frequency:    9.1249083030
  - # 6
    frequency:    9.1249083030

- q-position: [    0.0700000,    0.0000000,    0.0700000 ]
  distance:    0.1675039
  band:
  - # 1
    frequency:    0.8948037134
  - # 2
    frequency:    0.8948037134
  - # 3
    frequency:    2.1344660101
  - # 4
    frequency:    9.0393150898
  - # 5
    frequency:    9.0971410305
  - # 6
    frequency:    9.0971410305

- q-position: [    0.0650000,    0.0000000,    0.0650000 ]
  distance:    0.1694516
  band:
  - # 1
    frequency:    0.8344382665
  - # 2
    frequency:    0.8344382665
  - # 3
    frequency:    1.9903005862
  - # 4
    frequency:    9.0196249002
  - # 5
    frequency:    9.0708192067
  - # 6
    frequency:    9.0708192067

- q-position: [    0.0600000,    0.0000000,    0.0600000 ]
  distance:    0.1713993
  band:
  - # 1
    frequency:    0.7733062241
  - # 2
    frequency:    0.7733062241
  - # 3
    frequency:    1.8443130900
  - # 4
    frequency:    9.0013501266
  - # 5
    frequency:    9.0460370732
  - # 6
    frequency:    9.0460370732
