16   
2    

1    
  0.0000000000000000   0.7071067811865476   0.7071067811865476
  -0.0000000000   -7.1377139400   -7.1377139400
   0.0000000000    3.0831153600    3.0831153600
   1.2524513800   -0.2826323300    0.6252745100
  -1.2524513800    0.6252745100   -0.2826323300
   1.2524513800    0.6252745100   -0.2826323300
  -1.2524513800   -0.2826323300    0.6252745100
   0.0000000000   -0.4795883300   -0.4795883300
   0.0000000000    0.4440420300    0.4440420300
  -0.3144075000   -0.1859250100   -0.1859250100
   0.0649255500    0.3134576600    0.3134576600
   0.0000000000    5.2972126400   -1.4333664300
   0.0000000000   -0.0354626500   -0.6785883600
   0.0000000000   -1.4333664300    5.2972126400
   0.0000000000   -0.6785883600   -0.0354626500
  -0.0649255500    0.3134576600    0.3134576600
   0.3144075000   -0.1859250100   -0.1859250100

9    
  0.0000000000000000   0.7071067811865476   0.7071067811865476
   0.1779220300   -0.1304064000   -0.1304064000
  -0.2685590700    0.2873315300    0.2873315300
   0.0000000000   -0.8563820400    0.0460220500
   0.0000000000   -1.2310872600    4.5171769400
   0.0000000000    0.0460220500   -0.8563820400
   0.0000000000    4.5171769400   -1.2310872600
   0.2685590700    0.2873315300    0.2873315300
  -0.1779220300   -0.1304064000   -0.1304064000
   0.0000000000   -4.8760030600   -4.8760030600
   0.0000000000    1.2563454000    1.2563454000
   0.6222668100   -0.1096014500    0.2314186500
  -0.6222668100    0.2314186500   -0.1096014500
   0.6222668100    0.2314186500   -0.1096014500
  -0.6222668100   -0.1096014500    0.2314186500
  -0.0000000000   -0.4350003800   -0.4350003800
  -0.0000000000    1.0214436900    1.0214436900
