 vasp.5.4.1 24Jun15 (build Nov 12 2015 13:14:48) complex                        
  
 executed on             IFC_2016 date 2017.02.27  15:37:05
 running on   16 total cores
 distrk:  each k-point on   16 cores,    1 groups
 distr:  one band on NCORES_PER_BAND=   8 cores,    2 groups


--------------------------------------------------------------------------------------------------------


 INCAR:
 POTCAR:    PAW_PBE Sr_sv 07Sep2000               
 POTCAR:    PAW_PBE O 08Apr2002                   
 POTCAR:    PAW_PBE Sr_sv 07Sep2000               
   VRHFIN =Sr: 4s4p5s                                                           
   LEXCH  = PE                                                                  
   EATOM  =   843.0319 eV,   61.9611 Ry                                         
                                                                                
   TITEL  = PAW_PBE Sr_sv 07Sep2000                                             
   LULTRA =        F    use ultrasoft PP ?                                      
   IUNSCR =        1    unscreen: 0-lin 1-nonlin 2-no                           
   RPACOR =    2.200    partial core radius                                     
   POMASS =   87.620; ZVAL   =   10.000    mass and valenz                      
   RCORE  =    2.500    outmost cutoff radius                                   
   RWIGS  =    4.040; RWIGS  =    2.138    wigner-seitz radius (au A)           
   ENMAX  =  229.353; ENMIN  =  172.014 eV                                      
   RCLOC  =    2.201    cutoff for local pot                                    
   LCOR   =        T    correct aug charges                                     
   LPAW   =        T    paw PP                                                  
   EAUG   =  366.804                                                            
   DEXC   =    0.000                                                            
   RMAX   =    2.547    core radius for proj-oper                               
   RAUG   =    1.300    factor for augmentation sphere                          
   RDEP   =    2.562    radius for radial grids                                 
   RDEPT  =    2.128    core radius for aug-charge                              
                                                                                
   Atomic configuration                                                         
   10 entries                                                                   
     n  l   j            E        occ.                                          
     1  0  0.50    -15934.8930   2.0000                                         
     2  0  0.50     -2157.6250   2.0000                                         
     2  1  1.50     -1917.0034   6.0000                                         
     3  0  0.50      -333.7288   2.0000                                         
     3  1  1.50      -256.0992   6.0000                                         
     3  2  2.50      -127.9971  10.0000                                         
     4  0  0.50       -40.8953   2.0000                                         
     5  0  0.50        -3.5257   1.9990                                         
     4  1  1.50       -22.8179   6.0000                                         
     4  2  1.50        -1.2815   0.0010                                         
   Description                                                                  
     l       E           TYP  RCUT    TYP  RCUT                                 
     0    -40.8953213     23  2.480                                             
     0     -3.5257161     23  2.480                                             
     1    -22.8178632     23  2.500                                             
     1    -24.1784458     23  2.500                                             
     2     -1.2814598     23  2.500                                             
     2      0.2279365     23  2.500                                             
  local pseudopotential read in
  partial core-charges read in
  partial kinetic energy density read in
  atomic valenz-charges read in
  non local Contribution for L=           0  read in
    real space projection operators read in
  non local Contribution for L=           0  read in
    real space projection operators read in
  non local Contribution for L=           1  read in
    real space projection operators read in
  non local Contribution for L=           1  read in
    real space projection operators read in
  non local Contribution for L=           2  read in
    real space projection operators read in
  non local Contribution for L=           2  read in
    real space projection operators read in
    PAW grid and wavefunctions read in
 
   number of l-projection  operators is LMAX  =           6
   number of lm-projection operators is LMMAX =          18
 
 POTCAR:    PAW_PBE O 08Apr2002                   
   VRHFIN =O: s2p4                                                              
   LEXCH  = PE                                                                  
   EATOM  =   432.3788 eV,   31.7789 Ry                                         
                                                                                
   TITEL  = PAW_PBE O 08Apr2002                                                 
   LULTRA =        F    use ultrasoft PP ?                                      
   IUNSCR =        1    unscreen: 0-lin 1-nonlin 2-no                           
   RPACOR =    1.200    partial core radius                                     
   POMASS =   16.000; ZVAL   =    6.000    mass and valenz                      
   RCORE  =    1.520    outmost cutoff radius                                   
   RWIGS  =    1.550; RWIGS  =    0.820    wigner-seitz radius (au A)           
   ENMAX  =  400.000; ENMIN  =  300.000 eV                                      
   ICORE  =        2    local potential                                         
   LCOR   =        T    correct aug charges                                     
   LPAW   =        T    paw PP                                                  
   EAUG   =  605.392                                                            
   DEXC   =    0.000                                                            
   RMAX   =    1.553    core radius for proj-oper                               
   RAUG   =    1.300    factor for augmentation sphere                          
   RDEP   =    1.550    radius for radial grids                                 
   RDEPT  =    1.329    core radius for aug-charge                              
                                                                                
   Atomic configuration                                                         
    4 entries                                                                   
     n  l   j            E        occ.                                          
     1  0  0.50      -514.6923   2.0000                                         
     2  0  0.50       -23.9615   2.0000                                         
     2  1  0.50        -9.0305   4.0000                                         
     3  2  1.50        -9.5241   0.0000                                         
   Description                                                                  
     l       E           TYP  RCUT    TYP  RCUT                                 
     0    -23.9615318     23  1.200                                             
     0     -9.5240782     23  1.200                                             
     1     -9.0304911     23  1.520                                             
     1      8.1634956     23  1.520                                             
     2     -9.5240782      7  1.500                                             
  local pseudopotential read in
  partial core-charges read in
  partial kinetic energy density read in
  kinetic energy density of atom read in
  atomic valenz-charges read in
  non local Contribution for L=           0  read in
    real space projection operators read in
  non local Contribution for L=           0  read in
    real space projection operators read in
  non local Contribution for L=           1  read in
    real space projection operators read in
  non local Contribution for L=           1  read in
    real space projection operators read in
    PAW grid and wavefunctions read in
 
   number of l-projection  operators is LMAX  =           4
   number of lm-projection operators is LMMAX =           8
 

 ----------------------------------------------------------------------------- 
|                                                                             |
|  ADVICE TO THIS USER RUNNING 'VASP/VAMP'   (HEAR YOUR MASTER'S VOICE ...):  |
|                                                                             |
|      You enforced a specific xc-type in the INCAR file,                     |
|      a different type was found on the POTCAR file                          |
|          I HOPE YOU KNOW, WHAT YOU ARE  DOING                               |
|                                                                             |
 ----------------------------------------------------------------------------- 

  PAW_PBE Sr_sv 07Sep2000               :
 energy of atom  1       EATOM= -843.0319
 kinetic energy error for atom=    0.0002 (will be added to EATOM!!)
  PAW_PBE O 08Apr2002                   :
 energy of atom  2       EATOM= -432.3788
 kinetic energy error for atom=    0.0041 (will be added to EATOM!!)
 
 
 POSCAR: Sr O                                    
  positions in direct lattice
  No initial velocities read in
 exchange correlation table for  LEXCH =       14
   RHO(1)=    0.500       N(1)  =     2000
   RHO(2)=  100.500       N(2)  =     4000
 


--------------------------------------------------------------------------------------------------------


 ion  position               nearest neighbor table
   1  0.138  0.000  0.000-  11 1.99  13 1.99   2 2.63  10 2.76  15 2.76   3 3.25   5 3.25   6 3.25
                             4 3.25  14 3.35  12 3.35   7 3.77   7 3.77   5 4.22   3 4.22   4 4.22
   2  0.500  0.000  0.000-   9 2.57  11 2.57  12 2.57  13 2.57  14 2.57  16 2.57   1 2.63   4 3.63
                             6 3.63   5 3.63   6 3.63   8 3.63   3 3.63   4 3.63   8 3.63   3 3.63
   3  0.000  0.500  0.000-   9 2.57  10 2.57  12 2.57  13 2.57  15 2.57  16 2.57   1 3.25   7 3.63
                             5 3.63   7 3.63   8 3.63   4 3.63   2 3.63   5 3.63   2 3.63   4 3.63
   4  0.500  0.500  0.000-   9 2.57  10 2.57  11 2.57  14 2.57  15 2.57  16 2.57   1 3.25   2 3.63
                             3 3.63   8 3.63   6 3.63   7 3.63   8 3.63   2 3.63   6 3.63   3 3.63
   5  0.000  0.000  0.500-   9 2.57  10 2.57  11 2.57  14 2.57  15 2.57  16 2.57   1 3.25   7 3.63
                             6 3.63   2 3.63   3 3.63   3 3.63   7 3.63   8 3.63   2 3.63   6 3.63
   6  0.500  0.000  0.500-   9 2.57  10 2.57  12 2.57  13 2.57  15 2.57  16 2.57   1 3.25   2 3.63
                             5 3.63   8 3.63   2 3.63   4 3.63   4 3.63   7 3.63   8 3.63   5 3.63
   7  0.000  0.500  0.500-   9 2.57  11 2.57  12 2.57  13 2.57  14 2.57  16 2.57   3 3.63   5 3.63
                             8 3.63   3 3.63   4 3.63   5 3.63   6 3.63   4 3.63   6 3.63   8 3.63
   8  0.500  0.500  0.500-  10 2.57  11 2.57  12 2.57  13 2.57  14 2.57  15 2.57   4 3.63   6 3.63
                             7 3.63   2 3.63   3 3.63   4 3.63   2 3.63   5 3.63   6 3.63   3 3.63
   9  0.250  0.250  0.250-   2 2.57   3 2.57   4 2.57   5 2.57   6 2.57   7 2.57
  10  0.750  0.250  0.250-   3 2.57   4 2.57   5 2.57   6 2.57   8 2.57   1 2.76
  11  0.250  0.750  0.250-   1 1.99   2 2.57   4 2.57   5 2.57   7 2.57   8 2.57
  12  0.750  0.750  0.250-   2 2.57   3 2.57   6 2.57   7 2.57   8 2.57   1 3.35
  13  0.250  0.250  0.750-   1 1.99   2 2.57   3 2.57   6 2.57   7 2.57   8 2.57
  14  0.750  0.250  0.750-   2 2.57   4 2.57   5 2.57   7 2.57   8 2.57   1 3.35
  15  0.250  0.750  0.750-   3 2.57   4 2.57   5 2.57   6 2.57   8 2.57   1 2.76
  16  0.750  0.750  0.750-   2 2.57   3 2.57   4 2.57   5 2.57   6 2.57   7 2.57
 
  LATTYP: Found a face centered cubic cell.
 ALAT       =    10.2684199605
  
  Lattice vectors:
  
 A1 = (   0.0000000000,   5.1342099802,   5.1342099802)
 A2 = (   5.1342099802,   0.0000000000,   5.1342099802)
 A3 = (   5.1342099802,   5.1342099802,   0.0000000000)


Analysis of symmetry for initial positions (statically):
=====================================================================
 Subroutine PRICEL returns:
 Original cell was already a primitive cell.
 

 Routine SETGRP: Setting up the symmetry group for a 
 face centered cubic supercell.


 Subroutine GETGRP returns: Found  4 space group operations
 (whereof  4 operations were pure point group operations)
 out of a pool of 48 trial point group operations.


The static configuration has the point symmetry C_2v.


Analysis of symmetry for dynamics (positions and initial velocities):
=====================================================================
 Subroutine PRICEL returns:
 Original cell was already a primitive cell.
 

 Routine SETGRP: Setting up the symmetry group for a 
 face centered cubic supercell.


 Subroutine GETGRP returns: Found  4 space group operations
 (whereof  4 operations were pure point group operations)
 out of a pool of 48 trial point group operations.


The dynamic configuration has the point symmetry C_2v.


 Subroutine INISYM returns: Found  4 space group operations
 (whereof  4 operations are pure point group operations),
 and found     1 'primitive' translations

 
 
 KPOINTS: Automatic 4x4x4                         

Automatic generation of k-mesh.
Space group operators:
 irot       det(A)        alpha          n_x          n_y          n_z        tau_x        tau_y        tau_z
    1     1.000000     0.000001     1.000000     0.000000     0.000000     0.000000     0.000000     0.000000
    2     1.000000   180.000000     0.000000     0.707107     0.707107     0.000000     0.000000     0.000000
    3    -1.000000   180.000000     1.000000     0.000000     0.000000     0.000000     0.000000     0.000000
    4    -1.000000   180.000000     0.000000    -0.707107     0.707107     0.000000     0.000000     0.000000
 
 Subroutine IBZKPT returns following result:
 ===========================================
 
 Found     18 irreducible k-points:
 
 Following reciprocal coordinates:
            Coordinates               Weight
  0.000000  0.000000  0.000000      1.000000
  0.250000  0.000000  0.000000      4.000000
  0.500000  0.000000  0.000000      2.000000
  0.000000  0.250000  0.000000      4.000000
  0.250000  0.250000  0.000000      4.000000
  0.500000  0.250000  0.000000      8.000000
 -0.250000  0.250000  0.000000      8.000000
  0.000000  0.500000  0.000000      2.000000
  0.250000  0.500000  0.000000      8.000000
  0.500000  0.500000  0.000000      2.000000
  0.000000  0.250000  0.250000      2.000000
  0.500000  0.250000  0.250000      2.000000
 -0.250000  0.250000  0.250000      4.000000
  0.000000  0.500000  0.250000      4.000000
 -0.250000  0.500000  0.250000      4.000000
  0.000000 -0.250000  0.250000      2.000000
  0.500000 -0.250000  0.250000      2.000000
  0.000000  0.500000  0.500000      1.000000
 
 Following cartesian coordinates:
            Coordinates               Weight
  0.000000  0.000000  0.000000      1.000000
 -0.024346  0.024346  0.024346      4.000000
 -0.048693  0.048693  0.048693      2.000000
  0.024346 -0.024346  0.024346      4.000000
  0.000000  0.000000  0.048693      4.000000
 -0.024346  0.024346  0.073039      8.000000
  0.048693 -0.048693  0.000000      8.000000
  0.048693 -0.048693  0.048693      2.000000
  0.024346 -0.024346  0.073039      8.000000
  0.000000  0.000000  0.097386      2.000000
  0.048693  0.000000  0.000000      2.000000
  0.000000  0.048693  0.048693      2.000000
  0.073039 -0.024346 -0.024346      4.000000
  0.073039 -0.024346  0.024346      4.000000
  0.097386 -0.048693 -0.000000      4.000000
  0.000000  0.048693 -0.048693      2.000000
 -0.048693  0.097386 -0.000000      2.000000
  0.097386  0.000000  0.000000      1.000000
 


--------------------------------------------------------------------------------------------------------




 Dimension of arrays:
   k-points           NKPTS =     18   k-points in BZ     NKDIM =     18   number of bands    NBANDS=     76
   number of dos      NEDOS =    301   number of ions     NIONS =     16
   non local maximal  LDIM  =      6   non local SUM 2l+1 LMDIM =     18
   total plane-waves  NPLWV = 343000
   max r-space proj   IRMAX =      1   max aug-charges    IRDMAX= 594561
   dimension x,y,z NGX =    70 NGY =   70 NGZ =   70
   dimension x,y,z NGXF=   140 NGYF=  140 NGZF=  140
   support grid    NGXF=   280 NGYF=  280 NGZF=  280
   ions per type =               8   8
 NGX,Y,Z   is equivalent  to a cutoff of  16.03, 16.03, 16.03 a.u.
 NGXF,Y,Z  is equivalent  to a cutoff of  32.05, 32.05, 32.05 a.u.


 I would recommend the setting:
   dimension x,y,z NGX =    67 NGY =   67 NGZ =   67
 SYSTEM =  SrO                                     
 POSCAR =  Sr O                                    

 Startparameter for this run:
   NWRITE =      2    write-flag & timer
   PREC   = accura    normal or accurate (medium, high low for compatibility)
   ISTART =      0    job   : 0-new  1-cont  2-samecut
   ICHARG =      2    charge: 1-file 2-atom 10-const
   ISPIN  =      1    spin polarized calculation?
   LNONCOLLINEAR =      F non collinear calculations
   LSORBIT =      F    spin-orbit coupling
   INIWAV =      1    electr: 0-lowe 1-rand  2-diag
   LASPH  =      T    aspherical Exc in radial PAW
   METAGGA=      F    non-selfconsistent MetaGGA calc.

 Electronic Relaxation 1
   ENCUT  =  800.0 eV  58.80 Ry    7.67 a.u.  16.75 16.75 16.75*2*pi/ulx,y,z
   ENINI  =  800.0     initial cutoff
   ENAUG  =  605.4 eV  augmentation charge cutoff
   NELM   =     60;   NELMIN=  2; NELMDL= -5     # of ELM steps 
   EDIFF  = 0.1E-07   stopping-criterion for ELM
   LREAL  =      F    real-space projection
   NLSPLINE    = F    spline interpolate recip. space projectors
   LCOMPAT=      F    compatible to vasp.4.4
   GGA_COMPAT  = T    GGA compatible to vasp.4.4-vasp.4.6
   LMAXPAW     = -100 max onsite density
   LMAXMIX     =    2 max onsite mixed and CHGCAR
   VOSKOWN=      0    Vosko Wilk Nusair interpolation
   ROPT   =    0.00000   0.00000
 Ionic relaxation
   EDIFFG = 0.1E-06   stopping-criterion for IOM
   NSW    =      0    number of steps for IOM
   NBLOCK =      1;   KBLOCK =      1    inner block; outer block 
   IBRION =     -1    ionic relax: 0-MD 1-quasi-New 2-CG
   NFREE  =      0    steps in history (QN), initial steepest desc. (CG)
   ISIF   =      2    stress and relaxation
   IWAVPR =     10    prediction:  0-non 1-charg 2-wave 3-comb
   ISYM   =      2    0-nonsym 1-usesym 2-fastsym
   LCORR  =      T    Harris-Foulkes like correction to forces

   POTIM  = 0.5000    time-step for ionic-motion
   TEIN   =    0.0    initial temperature
   TEBEG  =    0.0;   TEEND  =   0.0 temperature during run
   SMASS  =  -3.00    Nose mass-parameter (am)
   estimated Nose-frequenzy (Omega)   =  0.10E-29 period in steps =****** mass=  -0.120E-26a.u.
   SCALEE = 1.0000    scale energy and forces
   NPACO  =    256;   APACO  = 16.0  distance and # of slots for P.C.
   PSTRESS=    0.0 pullay stress

  Mass of Ions in am
   POMASS =  87.62 16.00
  Ionic Valenz
   ZVAL   =  10.00  6.00
  Atomic Wigner-Seitz radii
   RWIGS  =  -1.00 -1.00
  virtual crystal weights 
   VCA    =   1.00  1.00
   NELECT =     128.0000    total number of electrons
   NUPDOWN=      -1.0000    fix difference up-down

 DOS related values:
   EMIN   =  10.00;   EMAX   =-10.00  energy-range for DOS
   EFERMI =   0.00
   ISMEAR =     0;   SIGMA  =   0.01  broadening in eV -4-tet -1-fermi 0-gaus

 Electronic relaxation 2 (details)
   IALGO  =     38    algorithm
   LDIAG  =      T    sub-space diagonalisation (order eigenvalues)
   LSUBROT=      F    optimize rotation matrix (better conditioning)
   TURBO    =      0    0=normal 1=particle mesh
   IRESTART =      0    0=no restart 2=restart with 2 vectors
   NREBOOT  =      0    no. of reboots
   NMIN     =      0    reboot dimension
   EREF     =   0.00    reference energy to select bands
   IMIX   =      4    mixing-type and parameters
     AMIX     =   0.40;   BMIX     =  1.00
     AMIX_MAG =   1.60;   BMIX_MAG =  1.00
     AMIN     =   0.10
     WC   =   100.;   INIMIX=   1;  MIXPRE=   1;  MAXMIX= -45

 Intra band minimization:
   WEIMIN = 0.0000     energy-eigenvalue tresh-hold
   EBREAK =  0.33E-10  absolut break condition
   DEPER  =   0.30     relativ break condition  

   TIME   =   0.40     timestep for ELM

  volume/ion in A,a.u.               =      16.92       114.16
  Fermi-wavevector in a.u.,A,eV,Ry     =   1.275443  2.410239 22.133358  1.626756
  Thomas-Fermi vector in A             =   2.408155
 
 Write flags
   LWAVE  =      F    write WAVECAR
   LCHARG =      F    write CHGCAR
   LVTOT  =      F    write LOCPOT, total local potential
   LVHAR  =      F    write LOCPOT, Hartree potential only
   LELF   =      F    write electronic localiz. function (ELF)
   LORBIT =      0    0 simple, 1 ext, 2 COOP (PROOUT)


 Dipole corrections
   LMONO  =      F    monopole corrections only (constant potential shift)
   LDIPOL =      F    correct potential (dipole corrections)
   IDIPOL =      0    1-x, 2-y, 3-z, 4-all directions 
   EPSILON=  1.0000000 bulk dielectric constant

 Exchange correlation treatment:
   GGA     =    PS    GGA type
   LEXCH   =    14    internal setting for exchange type
   VOSKOWN=      0    Vosko Wilk Nusair interpolation
   LHFCALC =     F    Hartree Fock is set to
   LHFONE  =     F    Hartree Fock one center treatment
   AEXX    =    0.0000 exact exchange contribution

 Linear response parameters
   LEPSILON=     F    determine dielectric tensor
   LRPA    =     F    only Hartree local field effects (RPA)
   LNABLA  =     F    use nabla operator in PAW spheres
   LVEL    =     F    velocity operator in full k-point grid
   LINTERFAST=   F  fast interpolation
   KINTER  =     0    interpolate to denser k-point grid
   CSHIFT  =0.1000    complex shift for real part using Kramers Kronig
   OMEGAMAX=  -1.0    maximum frequency
   DEG_THRESHOLD= 0.2000000E-02 threshold for treating states as degnerate
   RTIME   =    0.100 relaxation time in fs

 Orbital magnetization related:
   ORBITALMAG=     F  switch on orbital magnetization
   LCHIMAG   =     F  perturbation theory with respect to B field
   DQ        =  0.001000  dq finite difference perturbation B field



--------------------------------------------------------------------------------------------------------


 Static calculation
 charge density and potential will be updated during run
 non-spin polarized calculation
 Variant of blocked Davidson
 Davidson routine will perform the subspace rotation
 perform sub-space diagonalisation
    after iterative eigenvector-optimisation
 modified Broyden-mixing scheme, WC =      100.0
 initial mixing is a Kerker type mixing with AMIX =  0.4000 and BMIX =      1.0000
 Hartree-type preconditioning will be used
 using additional bands           12
 reciprocal scheme for non local part
 use partial core corrections
 calculate Harris-corrections to forces 
   (improved forces if not selfconsistent)
 use gradient corrections 
 use of overlap-Matrix (Vanderbilt PP)
 Gauss-broadening in eV      SIGMA  =   0.01


--------------------------------------------------------------------------------------------------------


  energy-cutoff  :      800.00
  volume of cell :      270.68
      direct lattice vectors                 reciprocal lattice vectors
     0.000000000  5.134209980  5.134209980    -0.097385966  0.097385966  0.097385966
     5.134209980  0.000000000  5.134209980     0.097385966 -0.097385966  0.097385966
     5.134209980  5.134209980  0.000000000     0.097385966  0.097385966 -0.097385966

  length of vectors
     7.260869386  7.260869386  7.260869386     0.168677442  0.168677442  0.168677442


 
 k-points in units of 2pi/SCALE and weight: Automatic 4x4x4                         
   0.00000000  0.00000000  0.00000000       0.016
  -0.02434649  0.02434649  0.02434649       0.062
  -0.04869298  0.04869298  0.04869298       0.031
   0.02434649 -0.02434649  0.02434649       0.062
   0.00000000  0.00000000  0.04869298       0.062
  -0.02434649  0.02434649  0.07303947       0.125
   0.04869298 -0.04869298  0.00000000       0.125
   0.04869298 -0.04869298  0.04869298       0.031
   0.02434649 -0.02434649  0.07303947       0.125
   0.00000000  0.00000000  0.09738597       0.031
   0.04869298  0.00000000  0.00000000       0.031
   0.00000000  0.04869298  0.04869298       0.031
   0.07303947 -0.02434649 -0.02434649       0.062
   0.07303947 -0.02434649  0.02434649       0.062
   0.09738597 -0.04869298 -0.00000000       0.062
   0.00000000  0.04869298 -0.04869298       0.031
  -0.04869298  0.09738597 -0.00000000       0.031
   0.09738597  0.00000000  0.00000000       0.016
 
 k-points in reciprocal lattice and weights: Automatic 4x4x4                         
   0.00000000  0.00000000  0.00000000       0.016
   0.25000000  0.00000000  0.00000000       0.062
   0.50000000  0.00000000  0.00000000       0.031
   0.00000000  0.25000000  0.00000000       0.062
   0.25000000  0.25000000  0.00000000       0.062
   0.50000000  0.25000000  0.00000000       0.125
  -0.25000000  0.25000000  0.00000000       0.125
   0.00000000  0.50000000  0.00000000       0.031
   0.25000000  0.50000000  0.00000000       0.125
   0.50000000  0.50000000  0.00000000       0.031
   0.00000000  0.25000000  0.25000000       0.031
   0.50000000  0.25000000  0.25000000       0.031
  -0.25000000  0.25000000  0.25000000       0.062
   0.00000000  0.50000000  0.25000000       0.062
  -0.25000000  0.50000000  0.25000000       0.062
   0.00000000 -0.25000000  0.25000000       0.031
   0.50000000 -0.25000000  0.25000000       0.031
   0.00000000  0.50000000  0.50000000       0.016
 
 position of ions in fractional coordinates (direct lattice) 
   0.13772455  0.00000000  0.00000000
   0.50000000  0.00000000  0.00000000
   0.00000000  0.50000000  0.00000000
   0.50000000  0.50000000  0.00000000
   0.00000000  0.00000000  0.50000000
   0.50000000  0.00000000  0.50000000
   0.00000000  0.50000000  0.50000000
   0.50000000  0.50000000  0.50000000
   0.25000000  0.25000000  0.25000000
   0.75000000  0.25000000  0.25000000
   0.25000000  0.75000000  0.25000000
   0.75000000  0.75000000  0.25000000
   0.25000000  0.25000000  0.75000000
   0.75000000  0.25000000  0.75000000
   0.25000000  0.75000000  0.75000000
   0.75000000  0.75000000  0.75000000
 
 position of ions in cartesian coordinates  (Angst):
   0.00000000  0.70710678  0.70710678
   0.00000000  2.56710499  2.56710499
   2.56710499  0.00000000  2.56710499
   2.56710499  2.56710499  5.13420998
   2.56710499  2.56710499  0.00000000
   2.56710499  5.13420998  2.56710499
   5.13420998  2.56710499  2.56710499
   5.13420998  5.13420998  5.13420998
   2.56710499  2.56710499  2.56710499
   2.56710499  5.13420998  5.13420998
   5.13420998  2.56710499  5.13420998
   5.13420998  5.13420998  7.70131497
   5.13420998  5.13420998  2.56710499
   5.13420998  7.70131497  5.13420998
   7.70131497  5.13420998  5.13420998
   7.70131497  7.70131497  7.70131497
 


--------------------------------------------------------------------------------------------------------


 k-point  1 :   0.0000 0.0000 0.0000  plane waves:   13851
 k-point  2 :   0.2500 0.0000 0.0000  plane waves:   13905
 k-point  3 :   0.5000 0.0000 0.0000  plane waves:   13960
 k-point  4 :   0.0000 0.2500 0.0000  plane waves:   13905
 k-point  5 :   0.2500 0.2500 0.0000  plane waves:   13944
 k-point  6 :   0.5000 0.2500 0.0000  plane waves:   13909
 k-point  7 :  -0.2500 0.2500 0.0000  plane waves:   13873
 k-point  8 :   0.0000 0.5000 0.0000  plane waves:   13960
 k-point  9 :   0.2500 0.5000 0.0000  plane waves:   13909
 k-point 10 :   0.5000 0.5000 0.0000  plane waves:   13888
 k-point 11 :   0.0000 0.2500 0.2500  plane waves:   13944
 k-point 12 :   0.5000 0.2500 0.2500  plane waves:   13873
 k-point 13 :  -0.2500 0.2500 0.2500  plane waves:   13909
 k-point 14 :   0.0000 0.5000 0.2500  plane waves:   13909
 k-point 15 :  -0.2500 0.5000 0.2500  plane waves:   13868
 k-point 16 :   0.0000-0.2500 0.2500  plane waves:   13873
 k-point 17 :   0.5000-0.2500 0.2500  plane waves:   13868
 k-point 18 :   0.0000 0.5000 0.5000  plane waves:   13888

 maximum and minimum number of plane-waves per node :      1763     1688

 maximum number of plane-waves:     13960
 maximum index in each direction: 
   IXMAX=   16   IYMAX=   16   IZMAX=   16
   IXMIN=  -17   IYMIN=  -17   IZMIN=  -17

 NGX is ok and might be reduce to  68
 NGY is ok and might be reduce to  68
 NGZ is ok and might be reduce to  68

 parallel 3D FFT for wavefunctions:
    minimum data exchange during FFTs selected (reduces bandwidth)
 parallel 3D FFT for charge:
    minimum data exchange during FFTs selected (reduces bandwidth)


 total amount of memory used by VASP on root node    97735. kBytes
========================================================================

   base      :      30000. kBytes
   nonl-proj :       9520. kBytes
   fftplans  :      26995. kBytes
   grid      :      11753. kBytes
   one-center:         31. kBytes
   wavefun   :      19436. kBytes
 
     INWAV:  cpu time    0.0000: real time    0.0000
 Broyden mixing: mesh for mixing (old mesh)
   NGX = 33   NGY = 33   NGZ = 33
  (NGX  =140   NGY  =140   NGZ  =140)
  gives a total of  35937 points

 initial charge density was supplied:
 charge density of overlapping atoms calculated
 number of electron     128.0000000 magnetization 
 keeping initial charge density in first step


--------------------------------------------------------------------------------------------------------


 Maximum index for augmentation-charges        39792 (set IRDMAX)


--------------------------------------------------------------------------------------------------------


 First call to EWALD:  gamma=   0.274
 Maximum number of real-space cells 3x 3x 3
 Maximum number of reciprocal cells 3x 3x 3

 FEWALD executed in parallel
    FEWALD:  cpu time    0.0000: real time    0.0017


----------------------------------------- Iteration    1(   1)  ---------------------------------------


    POTLOK:  cpu time    0.1520: real time    0.1506
    SETDIJ:  cpu time    0.5240: real time    0.5234
     EDDAV:  cpu time    7.0680: real time    7.0721
       DOS:  cpu time    0.0000: real time    0.0015
    --------------------------------------------
      LOOP:  cpu time    7.7440: real time    7.7490

 eigenvalue-minimisations  :  2736
 total energy-change (2. order) : 0.1135041E+04  (-0.8528962E+04)
 number of electron     128.0000000 magnetization 
 augmentation part      128.0000000 magnetization 

 Free energy of the ion-electron system (eV)
  ---------------------------------------------------
  alpha Z        PSCENC =       796.84035699
  Ewald energy   TEWEN  =     -8337.13446828
  -Hartree energ DENC   =     -1926.55823279
  -exchange      EXHF   =         0.00000000
  -V(xc)+E(xc)   XCENC  =       513.87053749
  PAW double counting   =      7817.12183272    -7712.97334390
  entropy T*S    EENTRO =        -0.00075411
  eigenvalues    EBANDS =      -200.64724840
  atomic energy  EATOM  =     10184.52279430
  Solvation  Ediel_sol  =         0.00000000
  ---------------------------------------------------
  free energy    TOTEN  =      1135.04147399 eV

  energy without entropy =     1135.04222811  energy(sigma->0) =     1135.04185105


--------------------------------------------------------------------------------------------------------




----------------------------------------- Iteration    1(   2)  ---------------------------------------


     EDDAV:  cpu time    8.4200: real time    8.4276
       DOS:  cpu time    0.0040: real time    0.0003
    --------------------------------------------
      LOOP:  cpu time    8.4280: real time    8.4283

 eigenvalue-minimisations  :  3496
 total energy-change (2. order) :-0.1152641E+04  (-0.1114812E+04)
 number of electron     128.0000000 magnetization 
 augmentation part      128.0000000 magnetization 

 Free energy of the ion-electron system (eV)
  ---------------------------------------------------
  alpha Z        PSCENC =       796.84035699
  Ewald energy   TEWEN  =     -8337.13446828
  -Hartree energ DENC   =     -1926.55823279
  -exchange      EXHF   =         0.00000000
  -V(xc)+E(xc)   XCENC  =       513.87053749
  PAW double counting   =      7817.12183272    -7712.97334390
  entropy T*S    EENTRO =        -0.00000000
  eigenvalues    EBANDS =     -1353.28918237
  atomic energy  EATOM  =     10184.52279430
  Solvation  Ediel_sol  =         0.00000000
  ---------------------------------------------------
  free energy    TOTEN  =       -17.59970586 eV

  energy without entropy =      -17.59970586  energy(sigma->0) =      -17.59970586


--------------------------------------------------------------------------------------------------------




----------------------------------------- Iteration    1(   3)  ---------------------------------------


     EDDAV:  cpu time    8.2040: real time    8.2110
       DOS:  cpu time    0.0040: real time    0.0003
    --------------------------------------------
      LOOP:  cpu time    8.2080: real time    8.2118

 eigenvalue-minimisations  :  3376
 total energy-change (2. order) :-0.8959203E+02  (-0.8904454E+02)
 number of electron     128.0000000 magnetization 
 augmentation part      128.0000000 magnetization 

 Free energy of the ion-electron system (eV)
  ---------------------------------------------------
  alpha Z        PSCENC =       796.84035699
  Ewald energy   TEWEN  =     -8337.13446828
  -Hartree energ DENC   =     -1926.55823279
  -exchange      EXHF   =         0.00000000
  -V(xc)+E(xc)   XCENC  =       513.87053749
  PAW double counting   =      7817.12183272    -7712.97334390
  entropy T*S    EENTRO =        -0.00000000
  eigenvalues    EBANDS =     -1442.88121216
  atomic energy  EATOM  =     10184.52279430
  Solvation  Ediel_sol  =         0.00000000
  ---------------------------------------------------
  free energy    TOTEN  =      -107.19173565 eV

  energy without entropy =     -107.19173565  energy(sigma->0) =     -107.19173565


--------------------------------------------------------------------------------------------------------




----------------------------------------- Iteration    1(   4)  ---------------------------------------


     EDDAV:  cpu time    9.8320: real time    9.8393
       DOS:  cpu time    0.0000: real time    0.0003
    --------------------------------------------
      LOOP:  cpu time    9.8320: real time    9.8401

 eigenvalue-minimisations  :  4296
 total energy-change (2. order) :-0.6172869E+01  (-0.6162801E+01)
 number of electron     128.0000000 magnetization 
 augmentation part      128.0000000 magnetization 

 Free energy of the ion-electron system (eV)
  ---------------------------------------------------
  alpha Z        PSCENC =       796.84035699
  Ewald energy   TEWEN  =     -8337.13446828
  -Hartree energ DENC   =     -1926.55823279
  -exchange      EXHF   =         0.00000000
  -V(xc)+E(xc)   XCENC  =       513.87053749
  PAW double counting   =      7817.12183272    -7712.97334390
  entropy T*S    EENTRO =        -0.00000000
  eigenvalues    EBANDS =     -1449.05408163
  atomic energy  EATOM  =     10184.52279430
  Solvation  Ediel_sol  =         0.00000000
  ---------------------------------------------------
  free energy    TOTEN  =      -113.36460512 eV

  energy without entropy =     -113.36460512  energy(sigma->0) =     -113.36460512


--------------------------------------------------------------------------------------------------------




----------------------------------------- Iteration    1(   5)  ---------------------------------------


     EDDAV:  cpu time    8.8160: real time    8.8205
       DOS:  cpu time    0.0000: real time    0.0003
    CHARGE:  cpu time    0.8520: real time    0.8523
    MIXING:  cpu time    0.0040: real time    0.0047
    --------------------------------------------
      LOOP:  cpu time    9.6760: real time    9.6784

 eigenvalue-minimisations  :  3720
 total energy-change (2. order) :-0.2016944E+00  (-0.2016475E+00)
 number of electron     128.0000001 magnetization 
 augmentation part       11.4946222 magnetization 

 Broyden mixing:
  rms(total) = 0.70065E+01    rms(broyden)= 0.70064E+01
  rms(prec ) = 0.80390E+01
  weight for this iteration     100.00

 Free energy of the ion-electron system (eV)
  ---------------------------------------------------
  alpha Z        PSCENC =       796.84035699
  Ewald energy   TEWEN  =     -8337.13446828
  -Hartree energ DENC   =     -1926.55823279
  -exchange      EXHF   =         0.00000000
  -V(xc)+E(xc)   XCENC  =       513.87053749
  PAW double counting   =      7817.12183272    -7712.97334390
  entropy T*S    EENTRO =        -0.00000000
  eigenvalues    EBANDS =     -1449.25577602
  atomic energy  EATOM  =     10184.52279430
  Solvation  Ediel_sol  =         0.00000000
  ---------------------------------------------------
  free energy    TOTEN  =      -113.56629951 eV

  energy without entropy =     -113.56629951  energy(sigma->0) =     -113.56629951


--------------------------------------------------------------------------------------------------------




----------------------------------------- Iteration    1(   6)  ---------------------------------------


    POTLOK:  cpu time    0.1480: real time    0.1472
    SETDIJ:  cpu time    0.5240: real time    0.5258
     EDDAV:  cpu time    8.1200: real time    8.1218
       DOS:  cpu time    0.0000: real time    0.0005
    CHARGE:  cpu time    0.8480: real time    0.8496
    MIXING:  cpu time    0.0040: real time    0.0051
    --------------------------------------------
      LOOP:  cpu time    9.6440: real time    9.6505

 eigenvalue-minimisations  :  3320
 total energy-change (2. order) : 0.1634961E+02  (-0.1096086E+02)
 number of electron     128.0000001 magnetization 
 augmentation part        9.5536279 magnetization 

 Broyden mixing:
  rms(total) = 0.73986E+01    rms(broyden)= 0.73986E+01
  rms(prec ) = 0.74854E+01
  weight for this iteration     100.00

 eigenvalues of (default mixing * dielectric matrix)
  average eigenvalue GAMMA=   0.3053
  0.3053

 Free energy of the ion-electron system (eV)
  ---------------------------------------------------
  alpha Z        PSCENC =       796.84035699
  Ewald energy   TEWEN  =     -8337.13446828
  -Hartree energ DENC   =     -2059.50365428
  -exchange      EXHF   =         0.00000000
  -V(xc)+E(xc)   XCENC  =       523.08286903
  PAW double counting   =     12514.71425653   -12434.32660033
  entropy T*S    EENTRO =        -0.00000000
  eigenvalues    EBANDS =     -1285.41224533
  atomic energy  EATOM  =     10184.52279430
  Solvation  Ediel_sol  =         0.00000000
  ---------------------------------------------------
  free energy    TOTEN  =       -97.21669138 eV

  energy without entropy =      -97.21669138  energy(sigma->0) =      -97.21669138


--------------------------------------------------------------------------------------------------------




----------------------------------------- Iteration    1(   7)  ---------------------------------------


    POTLOK:  cpu time    0.1520: real time    0.1484
    SETDIJ:  cpu time    0.5200: real time    0.5230
     EDDAV:  cpu time    8.3880: real time    8.3912
       DOS:  cpu time    0.0000: real time    0.0004
    CHARGE:  cpu time    0.8480: real time    0.8491
    MIXING:  cpu time    0.0080: real time    0.0054
    --------------------------------------------
      LOOP:  cpu time    9.9160: real time    9.9181

 eigenvalue-minimisations  :  3472
 total energy-change (2. order) : 0.1622257E+00  (-0.1063149E+01)
 number of electron     128.0000001 magnetization 
 augmentation part        9.3040966 magnetization 

 Broyden mixing:
  rms(total) = 0.44070E+01    rms(broyden)= 0.44070E+01
  rms(prec ) = 0.44574E+01
  weight for this iteration     100.00

 eigenvalues of (default mixing * dielectric matrix)
  average eigenvalue GAMMA=   1.3506
  0.8262  1.8750

 Free energy of the ion-electron system (eV)
  ---------------------------------------------------
  alpha Z        PSCENC =       796.84035699
  Ewald energy   TEWEN  =     -8337.13446828
  -Hartree energ DENC   =     -2035.79615984
  -exchange      EXHF   =         0.00000000
  -V(xc)+E(xc)   XCENC  =       521.34489015
  PAW double counting   =     15668.36538111   -15593.49601029
  entropy T*S    EENTRO =        -0.00000000
  eigenvalues    EBANDS =     -1301.70124976
  atomic energy  EATOM  =     10184.52279430
  Solvation  Ediel_sol  =         0.00000000
  ---------------------------------------------------
  free energy    TOTEN  =       -97.05446563 eV

  energy without entropy =      -97.05446563  energy(sigma->0) =      -97.05446563


--------------------------------------------------------------------------------------------------------




----------------------------------------- Iteration    1(   8)  ---------------------------------------


    POTLOK:  cpu time    0.1480: real time    0.1480
    SETDIJ:  cpu time    0.5240: real time    0.5250
     EDDAV:  cpu time    8.1200: real time    8.1248
       DOS:  cpu time    0.0040: real time    0.0005
    CHARGE:  cpu time    0.8440: real time    0.8482
    MIXING:  cpu time    0.0080: real time    0.0053
    --------------------------------------------
      LOOP:  cpu time    9.6480: real time    9.6523

 eigenvalue-minimisations  :  3320
 total energy-change (2. order) : 0.2246647E+00  (-0.3300051E+00)
 number of electron     128.0000001 magnetization 
 augmentation part        9.3945814 magnetization 

 Broyden mixing:
  rms(total) = 0.81517E+00    rms(broyden)= 0.81517E+00
  rms(prec ) = 0.89975E+00
  weight for this iteration     100.00

 eigenvalues of (default mixing * dielectric matrix)
  average eigenvalue GAMMA=   1.2818
  2.2496  0.7979  0.7979

 Free energy of the ion-electron system (eV)
  ---------------------------------------------------
  alpha Z        PSCENC =       796.84035699
  Ewald energy   TEWEN  =     -8337.13446828
  -Hartree energ DENC   =     -2019.13570829
  -exchange      EXHF   =         0.00000000
  -V(xc)+E(xc)   XCENC  =       520.03391208
  PAW double counting   =     23653.15902676   -23586.33281822
  entropy T*S    EENTRO =        -0.00000000
  eigenvalues    EBANDS =     -1308.78289626
  atomic energy  EATOM  =     10184.52279430
  Solvation  Ediel_sol  =         0.00000000
  ---------------------------------------------------
  free energy    TOTEN  =       -96.82980093 eV

  energy without entropy =      -96.82980093  energy(sigma->0) =      -96.82980093


--------------------------------------------------------------------------------------------------------




----------------------------------------- Iteration    1(   9)  ---------------------------------------


    POTLOK:  cpu time    0.1480: real time    0.1490
    SETDIJ:  cpu time    0.5240: real time    0.5246
     EDDAV:  cpu time    7.8920: real time    7.8937
       DOS:  cpu time    0.0000: real time    0.0005
    CHARGE:  cpu time    0.8480: real time    0.8493
    MIXING:  cpu time    0.0040: real time    0.0054
    --------------------------------------------
      LOOP:  cpu time    9.4160: real time    9.4230

 eigenvalue-minimisations  :  3192
 total energy-change (2. order) : 0.1082268E+00  (-0.5736553E-01)
 number of electron     128.0000001 magnetization 
 augmentation part        9.2772478 magnetization 

 Broyden mixing:
  rms(total) = 0.34119E+00    rms(broyden)= 0.34119E+00
  rms(prec ) = 0.35224E+00
  weight for this iteration     100.00

 eigenvalues of (default mixing * dielectric matrix)
  average eigenvalue GAMMA=   1.2547
  2.4309  0.8316  0.8316  0.9246

 Free energy of the ion-electron system (eV)
  ---------------------------------------------------
  alpha Z        PSCENC =       796.84035699
  Ewald energy   TEWEN  =     -8337.13446828
  -Hartree energ DENC   =     -2027.61121623
  -exchange      EXHF   =         0.00000000
  -V(xc)+E(xc)   XCENC  =       520.59725222
  PAW double counting   =     25986.20674087   -25922.24263128
  entropy T*S    EENTRO =        -0.00000000
  eigenvalues    EBANDS =     -1297.90040266
  atomic energy  EATOM  =     10184.52279430
  Solvation  Ediel_sol  =         0.00000000
  ---------------------------------------------------
  free energy    TOTEN  =       -96.72157409 eV

  energy without entropy =      -96.72157409  energy(sigma->0) =      -96.72157409


--------------------------------------------------------------------------------------------------------




----------------------------------------- Iteration    1(  10)  ---------------------------------------


    POTLOK:  cpu time    0.1480: real time    0.1484
    SETDIJ:  cpu time    0.5200: real time    0.5234
     EDDAV:  cpu time    8.8600: real time    8.8609
       DOS:  cpu time    0.0000: real time    0.0005
    CHARGE:  cpu time    0.9600: real time    0.9606
    MIXING:  cpu time    0.0040: real time    0.0052
    --------------------------------------------
      LOOP:  cpu time   10.4960: real time   10.4996

 eigenvalue-minimisations  :  3736
 total energy-change (2. order) :-0.1104738E-01  (-0.1099060E-01)
 number of electron     128.0000001 magnetization 
 augmentation part        9.2000970 magnetization 

 Broyden mixing:
  rms(total) = 0.10262E+00    rms(broyden)= 0.10262E+00
  rms(prec ) = 0.10657E+00
  weight for this iteration     100.00

 eigenvalues of (default mixing * dielectric matrix)
  average eigenvalue GAMMA=   1.3687
  2.4675  1.8678  0.8561  0.8561  0.7957

 Free energy of the ion-electron system (eV)
  ---------------------------------------------------
  alpha Z        PSCENC =       796.84035699
  Ewald energy   TEWEN  =     -8337.13446828
  -Hartree energ DENC   =     -2028.85448285
  -exchange      EXHF   =         0.00000000
  -V(xc)+E(xc)   XCENC  =       520.68193481
  PAW double counting   =     26717.54447755   -26654.23248735
  entropy T*S    EENTRO =        -0.00000000
  eigenvalues    EBANDS =     -1296.10074663
  atomic energy  EATOM  =     10184.52279430
  Solvation  Ediel_sol  =         0.00000000
  ---------------------------------------------------
  free energy    TOTEN  =       -96.73262147 eV

  energy without entropy =      -96.73262147  energy(sigma->0) =      -96.73262147


--------------------------------------------------------------------------------------------------------




----------------------------------------- Iteration    1(  11)  ---------------------------------------


    POTLOK:  cpu time    0.1480: real time    0.1477
    SETDIJ:  cpu time    0.5280: real time    0.5253
     EDDAV:  cpu time    8.8880: real time    8.8922
       DOS:  cpu time    0.0000: real time    0.0004
    CHARGE:  cpu time    0.8480: real time    0.8487
    MIXING:  cpu time    0.0040: real time    0.0066
    --------------------------------------------
      LOOP:  cpu time   10.4160: real time   10.4214

 eigenvalue-minimisations  :  3752
 total energy-change (2. order) :-0.3086983E-02  (-0.1274192E-02)
 number of electron     128.0000001 magnetization 
 augmentation part        9.1980408 magnetization 

 Broyden mixing:
  rms(total) = 0.26774E-01    rms(broyden)= 0.26774E-01
  rms(prec ) = 0.37884E-01
  weight for this iteration     100.00

 eigenvalues of (default mixing * dielectric matrix)
  average eigenvalue GAMMA=   1.3015
  2.5100  1.9749  0.8070  0.8070  0.8551  0.8551

 Free energy of the ion-electron system (eV)
  ---------------------------------------------------
  alpha Z        PSCENC =       796.84035699
  Ewald energy   TEWEN  =     -8337.13446828
  -Hartree energ DENC   =     -2029.20020337
  -exchange      EXHF   =         0.00000000
  -V(xc)+E(xc)   XCENC  =       520.70064073
  PAW double counting   =     26820.74964528   -26757.01071616
  entropy T*S    EENTRO =        -0.00000000
  eigenvalues    EBANDS =     -1296.20375792
  atomic energy  EATOM  =     10184.52279430
  Solvation  Ediel_sol  =         0.00000000
  ---------------------------------------------------
  free energy    TOTEN  =       -96.73570845 eV

  energy without entropy =      -96.73570845  energy(sigma->0) =      -96.73570845


--------------------------------------------------------------------------------------------------------




----------------------------------------- Iteration    1(  12)  ---------------------------------------


    POTLOK:  cpu time    0.1480: real time    0.1483
    SETDIJ:  cpu time    0.5280: real time    0.5281
     EDDAV:  cpu time    8.2000: real time    8.2046
       DOS:  cpu time    0.0000: real time    0.0003
    CHARGE:  cpu time    0.8480: real time    0.8497
    MIXING:  cpu time    0.0080: real time    0.0057
    --------------------------------------------
      LOOP:  cpu time    9.7360: real time    9.7373

 eigenvalue-minimisations  :  3368
 total energy-change (2. order) : 0.3920278E-03  (-0.3055507E-03)
 number of electron     128.0000001 magnetization 
 augmentation part        9.1936781 magnetization 

 Broyden mixing:
  rms(total) = 0.10349E-01    rms(broyden)= 0.10349E-01
  rms(prec ) = 0.13505E-01
  weight for this iteration     100.00

 eigenvalues of (default mixing * dielectric matrix)
  average eigenvalue GAMMA=   1.3224
  2.5148  2.4068  0.8227  0.8227  0.9154  0.9154  0.8594

 Free energy of the ion-electron system (eV)
  ---------------------------------------------------
  alpha Z        PSCENC =       796.84035699
  Ewald energy   TEWEN  =     -8337.13446828
  -Hartree energ DENC   =     -2029.77371009
  -exchange      EXHF   =         0.00000000
  -V(xc)+E(xc)   XCENC  =       520.73544237
  PAW double counting   =     26828.73460556   -26764.91453904
  entropy T*S    EENTRO =        -0.00000000
  eigenvalues    EBANDS =     -1295.74579822
  atomic energy  EATOM  =     10184.52279430
  Solvation  Ediel_sol  =         0.00000000
  ---------------------------------------------------
  free energy    TOTEN  =       -96.73531642 eV

  energy without entropy =      -96.73531642  energy(sigma->0) =      -96.73531642


--------------------------------------------------------------------------------------------------------




----------------------------------------- Iteration    1(  13)  ---------------------------------------


    POTLOK:  cpu time    0.1480: real time    0.1483
    SETDIJ:  cpu time    0.5240: real time    0.5247
     EDDAV:  cpu time    9.0280: real time    9.0324
       DOS:  cpu time    0.0000: real time    0.0003
    CHARGE:  cpu time    0.8560: real time    0.8568
    MIXING:  cpu time    0.0080: real time    0.0056
    --------------------------------------------
      LOOP:  cpu time   10.5640: real time   10.5687

 eigenvalue-minimisations  :  3784
 total energy-change (2. order) :-0.1387160E-03  (-0.1090474E-03)
 number of electron     128.0000001 magnetization 
 augmentation part        9.1891972 magnetization 

 Broyden mixing:
  rms(total) = 0.41855E-02    rms(broyden)= 0.41854E-02
  rms(prec ) = 0.59647E-02
  weight for this iteration     100.00

 eigenvalues of (default mixing * dielectric matrix)
  average eigenvalue GAMMA=   1.3419
  2.6399  2.3501  1.4676  0.8171  0.8171  0.9148  0.9148  0.8140

 Free energy of the ion-electron system (eV)
  ---------------------------------------------------
  alpha Z        PSCENC =       796.84035699
  Ewald energy   TEWEN  =     -8337.13446828
  -Hartree energ DENC   =     -2030.21558292
  -exchange      EXHF   =         0.00000000
  -V(xc)+E(xc)   XCENC  =       520.76255847
  PAW double counting   =     26832.08362322   -26768.16322466
  entropy T*S    EENTRO =        -0.00000000
  eigenvalues    EBANDS =     -1295.43151223
  atomic energy  EATOM  =     10184.52279430
  Solvation  Ediel_sol  =         0.00000000
  ---------------------------------------------------
  free energy    TOTEN  =       -96.73545514 eV

  energy without entropy =      -96.73545514  energy(sigma->0) =      -96.73545514


--------------------------------------------------------------------------------------------------------




----------------------------------------- Iteration    1(  14)  ---------------------------------------


    POTLOK:  cpu time    0.1480: real time    0.1480
    SETDIJ:  cpu time    0.5240: real time    0.5239
     EDDAV:  cpu time    8.4360: real time    8.4399
       DOS:  cpu time    0.0000: real time    0.0004
    CHARGE:  cpu time    0.8480: real time    0.8491
    MIXING:  cpu time    0.0040: real time    0.0057
    --------------------------------------------
      LOOP:  cpu time    9.9600: real time    9.9675

 eigenvalue-minimisations  :  3496
 total energy-change (2. order) :-0.1062367E-04  (-0.1562639E-04)
 number of electron     128.0000001 magnetization 
 augmentation part        9.1891627 magnetization 

 Broyden mixing:
  rms(total) = 0.46085E-02    rms(broyden)= 0.46085E-02
  rms(prec ) = 0.49891E-02
  weight for this iteration     100.00

 eigenvalues of (default mixing * dielectric matrix)
  average eigenvalue GAMMA=   1.3353
  2.7916  2.3456  1.4469  1.4469  0.7955  0.7955  0.7450  0.8256  0.8256

 Free energy of the ion-electron system (eV)
  ---------------------------------------------------
  alpha Z        PSCENC =       796.84035699
  Ewald energy   TEWEN  =     -8337.13446828
  -Hartree energ DENC   =     -2030.29180028
  -exchange      EXHF   =         0.00000000
  -V(xc)+E(xc)   XCENC  =       520.76623139
  PAW double counting   =     26835.40158052   -26771.44342486
  entropy T*S    EENTRO =        -0.00000000
  eigenvalues    EBANDS =     -1295.39673554
  atomic energy  EATOM  =     10184.52279430
  Solvation  Ediel_sol  =         0.00000000
  ---------------------------------------------------
  free energy    TOTEN  =       -96.73546576 eV

  energy without entropy =      -96.73546576  energy(sigma->0) =      -96.73546576


--------------------------------------------------------------------------------------------------------




----------------------------------------- Iteration    1(  15)  ---------------------------------------


    POTLOK:  cpu time    0.1480: real time    0.1480
    SETDIJ:  cpu time    0.5240: real time    0.5259
     EDDAV:  cpu time    8.2440: real time    8.2470
       DOS:  cpu time    0.0000: real time    0.0004
    CHARGE:  cpu time    0.8520: real time    0.8521
    MIXING:  cpu time    0.0040: real time    0.0063
    --------------------------------------------
      LOOP:  cpu time    9.7800: real time    9.7830

 eigenvalue-minimisations  :  3392
 total energy-change (2. order) :-0.3392404E-05  (-0.2187716E-05)
 number of electron     128.0000001 magnetization 
 augmentation part        9.1894871 magnetization 

 Broyden mixing:
  rms(total) = 0.30459E-02    rms(broyden)= 0.30459E-02
  rms(prec ) = 0.31255E-02
  weight for this iteration     100.00

 eigenvalues of (default mixing * dielectric matrix)
  average eigenvalue GAMMA=   1.3164
  2.8143  2.2119  1.9103  1.3585  0.8104  0.8104  0.8001  0.8001  0.8239  0.8239

 Free energy of the ion-electron system (eV)
  ---------------------------------------------------
  alpha Z        PSCENC =       796.84035699
  Ewald energy   TEWEN  =     -8337.13446828
  -Hartree energ DENC   =     -2030.32957332
  -exchange      EXHF   =         0.00000000
  -V(xc)+E(xc)   XCENC  =       520.76808491
  PAW double counting   =     26837.38864260   -26773.41252661
  entropy T*S    EENTRO =        -0.00000000
  eigenvalues    EBANDS =     -1295.37877973
  atomic energy  EATOM  =     10184.52279430
  Solvation  Ediel_sol  =         0.00000000
  ---------------------------------------------------
  free energy    TOTEN  =       -96.73546915 eV

  energy without entropy =      -96.73546915  energy(sigma->0) =      -96.73546915


--------------------------------------------------------------------------------------------------------




----------------------------------------- Iteration    1(  16)  ---------------------------------------


    POTLOK:  cpu time    0.1480: real time    0.1485
    SETDIJ:  cpu time    0.5240: real time    0.5242
     EDDAV:  cpu time    8.8720: real time    8.8781
       DOS:  cpu time    0.0000: real time    0.0004
    CHARGE:  cpu time    0.8520: real time    0.8515
    MIXING:  cpu time    0.0080: real time    0.0065
    --------------------------------------------
      LOOP:  cpu time   10.4040: real time   10.4098

 eigenvalue-minimisations  :  3736
 total energy-change (2. order) :-0.1553890E-06  (-0.4849694E-06)
 number of electron     128.0000001 magnetization 
 augmentation part        9.1896608 magnetization 

 Broyden mixing:
  rms(total) = 0.16797E-02    rms(broyden)= 0.16797E-02
  rms(prec ) = 0.17374E-02
  weight for this iteration     100.00

 eigenvalues of (default mixing * dielectric matrix)
  average eigenvalue GAMMA=   1.3804
  2.8640  2.1591  2.1094  2.1094  1.0748  0.7970  0.7970  0.8522  0.8522  0.7848
  0.7848

 Free energy of the ion-electron system (eV)
  ---------------------------------------------------
  alpha Z        PSCENC =       796.84035699
  Ewald energy   TEWEN  =     -8337.13446828
  -Hartree energ DENC   =     -2030.34573314
  -exchange      EXHF   =         0.00000000
  -V(xc)+E(xc)   XCENC  =       520.76891539
  PAW double counting   =     26837.50621143   -26773.52724820
  entropy T*S    EENTRO =        -0.00000000
  eigenvalues    EBANDS =     -1295.36629779
  atomic energy  EATOM  =     10184.52279430
  Solvation  Ediel_sol  =         0.00000000
  ---------------------------------------------------
  free energy    TOTEN  =       -96.73546931 eV

  energy without entropy =      -96.73546931  energy(sigma->0) =      -96.73546931


--------------------------------------------------------------------------------------------------------




----------------------------------------- Iteration    1(  17)  ---------------------------------------


    POTLOK:  cpu time    0.1480: real time    0.1479
    SETDIJ:  cpu time    0.5240: real time    0.5251
     EDDAV:  cpu time    8.2360: real time    8.2394
       DOS:  cpu time    0.0000: real time    0.0004
    CHARGE:  cpu time    0.8520: real time    0.8535
    MIXING:  cpu time    0.0080: real time    0.0063
    --------------------------------------------
      LOOP:  cpu time    9.7680: real time    9.7732

 eigenvalue-minimisations  :  3384
 total energy-change (2. order) :-0.7806375E-07  (-0.6843538E-07)
 number of electron     128.0000001 magnetization 
 augmentation part        9.1896745 magnetization 

 Broyden mixing:
  rms(total) = 0.58276E-03    rms(broyden)= 0.58262E-03
  rms(prec ) = 0.69803E-03
  weight for this iteration     100.00

 eigenvalues of (default mixing * dielectric matrix)
  average eigenvalue GAMMA=   1.3637
  2.9516  2.3838  2.3838  1.6670  1.3092  0.7904  0.7904  0.8141  0.8141  0.8644
  0.7979  0.7979

 Free energy of the ion-electron system (eV)
  ---------------------------------------------------
  alpha Z        PSCENC =       796.84035699
  Ewald energy   TEWEN  =     -8337.13446828
  -Hartree energ DENC   =     -2030.35941610
  -exchange      EXHF   =         0.00000000
  -V(xc)+E(xc)   XCENC  =       520.76971393
  PAW double counting   =     26837.23222951   -26773.24995780
  entropy T*S    EENTRO =        -0.00000000
  eigenvalues    EBANDS =     -1295.35672193
  atomic energy  EATOM  =     10184.52279430
  Solvation  Ediel_sol  =         0.00000000
  ---------------------------------------------------
  free energy    TOTEN  =       -96.73546939 eV

  energy without entropy =      -96.73546939  energy(sigma->0) =      -96.73546939


--------------------------------------------------------------------------------------------------------




----------------------------------------- Iteration    1(  18)  ---------------------------------------


    POTLOK:  cpu time    0.1480: real time    0.1484
    SETDIJ:  cpu time    0.5280: real time    0.5275
     EDDAV:  cpu time    8.2600: real time    8.2648
       DOS:  cpu time    0.0000: real time    0.0005
    CHARGE:  cpu time    0.8520: real time    0.8522
    MIXING:  cpu time    0.0080: real time    0.0064
    --------------------------------------------
      LOOP:  cpu time    9.7960: real time    9.8004

 eigenvalue-minimisations  :  3400
 total energy-change (2. order) : 0.1425797E-06  (-0.2858072E-07)
 number of electron     128.0000001 magnetization 
 augmentation part        9.1898185 magnetization 

 Broyden mixing:
  rms(total) = 0.27046E-03    rms(broyden)= 0.27016E-03
  rms(prec ) = 0.32617E-03
  weight for this iteration     100.00

 eigenvalues of (default mixing * dielectric matrix)
  average eigenvalue GAMMA=   1.3885
  2.9156  2.6089  2.4438  1.6627  1.6627  1.1353  0.7975  0.7975  0.8215  0.8215
  0.7475  0.8178  0.8178

 Free energy of the ion-electron system (eV)
  ---------------------------------------------------
  alpha Z        PSCENC =       796.84035699
  Ewald energy   TEWEN  =     -8337.13446828
  -Hartree energ DENC   =     -2030.36123487
  -exchange      EXHF   =         0.00000000
  -V(xc)+E(xc)   XCENC  =       520.76974837
  PAW double counting   =     26837.03757021   -26773.05330629
  entropy T*S    EENTRO =        -0.00000000
  eigenvalues    EBANDS =     -1295.35692967
  atomic energy  EATOM  =     10184.52279430
  Solvation  Ediel_sol  =         0.00000000
  ---------------------------------------------------
  free energy    TOTEN  =       -96.73546924 eV

  energy without entropy =      -96.73546924  energy(sigma->0) =      -96.73546924


--------------------------------------------------------------------------------------------------------




----------------------------------------- Iteration    1(  19)  ---------------------------------------


    POTLOK:  cpu time    0.1480: real time    0.1471
    SETDIJ:  cpu time    0.5240: real time    0.5241
     EDDAV:  cpu time    7.7680: real time    7.7728
       DOS:  cpu time    0.0000: real time    0.0005
    CHARGE:  cpu time    0.8560: real time    0.8542
    MIXING:  cpu time    0.0080: real time    0.0071
    --------------------------------------------
      LOOP:  cpu time    9.3040: real time    9.3063

 eigenvalue-minimisations  :  3120
 total energy-change (2. order) : 0.6378104E-07  (-0.2484435E-07)
 number of electron     128.0000001 magnetization 
 augmentation part        9.1899255 magnetization 

 Broyden mixing:
  rms(total) = 0.70217E-04    rms(broyden)= 0.69073E-04
  rms(prec ) = 0.78071E-04
  weight for this iteration     100.00

 eigenvalues of (default mixing * dielectric matrix)
  average eigenvalue GAMMA=   1.3966
  2.9408  2.5737  2.3437  2.0103  2.0103  1.1382  0.7976  0.7976  0.8201  0.8201
  0.8649  0.8649  0.7663  0.8035

 Free energy of the ion-electron system (eV)
  ---------------------------------------------------
  alpha Z        PSCENC =       796.84035699
  Ewald energy   TEWEN  =     -8337.13446828
  -Hartree energ DENC   =     -2030.35908006
  -exchange      EXHF   =         0.00000000
  -V(xc)+E(xc)   XCENC  =       520.76956303
  PAW double counting   =     26836.69692541   -26772.71172423
  entropy T*S    EENTRO =        -0.00000000
  eigenvalues    EBANDS =     -1295.35983634
  atomic energy  EATOM  =     10184.52279430
  Solvation  Ediel_sol  =         0.00000000
  ---------------------------------------------------
  free energy    TOTEN  =       -96.73546918 eV

  energy without entropy =      -96.73546918  energy(sigma->0) =      -96.73546918


--------------------------------------------------------------------------------------------------------




----------------------------------------- Iteration    1(  20)  ---------------------------------------


    POTLOK:  cpu time    0.1480: real time    0.1478
    SETDIJ:  cpu time    0.5240: real time    0.5266
     EDDAV:  cpu time    6.5400: real time    6.5415
       DOS:  cpu time    0.0000: real time    0.0003
    --------------------------------------------
      LOOP:  cpu time    7.2120: real time    7.2168

 eigenvalue-minimisations  :  2416
 total energy-change (2. order) : 0.9116775E-08  (-0.3243601E-08)
 number of electron     128.0000001 magnetization 
 augmentation part        9.1899255 magnetization 

 Free energy of the ion-electron system (eV)
  ---------------------------------------------------
  alpha Z        PSCENC =       796.84035699
  Ewald energy   TEWEN  =     -8337.13446828
  -Hartree energ DENC   =     -2030.35974592
  -exchange      EXHF   =         0.00000000
  -V(xc)+E(xc)   XCENC  =       520.76960292
  PAW double counting   =     26836.69398485   -26772.70885315
  entropy T*S    EENTRO =        -0.00000000
  eigenvalues    EBANDS =     -1295.35914089
  atomic energy  EATOM  =     10184.52279430
  Solvation  Ediel_sol  =         0.00000000
  ---------------------------------------------------
  free energy    TOTEN  =       -96.73546917 eV

  energy without entropy =      -96.73546917  energy(sigma->0) =      -96.73546917


--------------------------------------------------------------------------------------------------------




 average (electrostatic) potential at core
  the test charge radii are     1.1929  0.7215
  (the norm of the test charge is              1.0000)
       1 -35.9769       2 -36.8951       3 -36.3445       4 -36.3445       5 -36.3445
       6 -36.3445       7 -36.3278       8 -36.1314       9 -70.9957      10 -70.6633
      11 -71.3092      12 -70.3385      13 -71.3092      14 -70.3385      15 -70.6633
      16 -70.9957
 
 
 
 E-fermi :   1.9897     XC(G=0): -10.2572     alpha+bet :-12.1858


 k-point     1 :       0.0000    0.0000    0.0000
  band No.  band energies     occupation 
      1     -31.3878      2.00000
      2     -30.7703      2.00000
      3     -30.6769      2.00000
      4     -30.6759      2.00000
      5     -30.6348      2.00000
      6     -30.6306      2.00000
      7     -30.5511      2.00000
      8     -30.4609      2.00000
      9     -16.6227      2.00000
     10     -15.7812      2.00000
     11     -15.2673      2.00000
     12     -14.8938      2.00000
     13     -14.0561      2.00000
     14     -14.0403      2.00000
     15     -13.7148      2.00000
     16     -13.6922      2.00000
     17     -13.6328      2.00000
     18     -13.3833      2.00000
     19     -13.3026      2.00000
     20     -13.1315      2.00000
     21     -12.9983      2.00000
     22     -12.9956      2.00000
     23     -12.8822      2.00000
     24     -12.7162      2.00000
     25     -12.7161      2.00000
     26     -12.6505      2.00000
     27     -12.6081      2.00000
     28     -12.6051      2.00000
     29     -12.5710      2.00000
     30     -12.5192      2.00000
     31     -12.4475      2.00000
     32     -12.4454      2.00000
     33     -12.4004      2.00000
     34     -12.3980      2.00000
     35     -11.8038      2.00000
     36     -11.7879      2.00000
     37     -11.3695      2.00000
     38     -11.3627      2.00000
     39     -11.2360      2.00000
     40     -10.3749      2.00000
     41      -1.0094      2.00000
     42      -0.9619      2.00000
     43      -0.7792      2.00000
     44      -0.5771      2.00000
     45      -0.5475      2.00000
     46      -0.1183      2.00000
     47      -0.0363      2.00000
     48       0.1051      2.00000
     49       0.3538      2.00000
     50       0.3652      2.00000
     51       0.3982      2.00000
     52       1.0198      2.00000
     53       1.0203      2.00000
     54       1.0258      2.00000
     55       1.1429      2.00000
     56       1.3038      2.00000
     57       1.3054      2.00000
     58       1.4459      2.00000
     59       1.4699      2.00000
     60       1.4991      2.00000
     61       1.5612      2.00000
     62       1.5752      2.00000
     63       1.6263      2.00000
     64       1.9293      2.00000
     65       4.6080      0.00000
     66       4.7841      0.00000
     67       5.0350      0.00000
     68       5.2788      0.00000
     69       7.1659      0.00000
     70       7.2425      0.00000
     71       7.3168      0.00000
     72       7.5376      0.00000
     73       8.1592      0.00000
     74       8.2778      0.00000
     75       8.2873      0.00000
     76       8.5674      0.00000

 k-point     2 :       0.2500    0.0000    0.0000
  band No.  band energies     occupation 
      1     -31.3856      2.00000
      2     -30.7599      2.00000
      3     -30.6892      2.00000
      4     -30.6700      2.00000
      5     -30.6409      2.00000
      6     -30.6336      2.00000
      7     -30.5463      2.00000
      8     -30.4639      2.00000
      9     -16.6065      2.00000
     10     -15.7338      2.00000
     11     -15.1312      2.00000
     12     -14.7578      2.00000
     13     -14.2263      2.00000
     14     -14.1192      2.00000
     15     -14.0602      2.00000
     16     -13.9027      2.00000
     17     -13.6929      2.00000
     18     -13.3523      2.00000
     19     -13.2713      2.00000
     20     -13.0043      2.00000
     21     -12.9613      2.00000
     22     -12.8620      2.00000
     23     -12.8305      2.00000
     24     -12.7064      2.00000
     25     -12.6472      2.00000
     26     -12.6279      2.00000
     27     -12.6202      2.00000
     28     -12.5712      2.00000
     29     -12.5632      2.00000
     30     -12.4977      2.00000
     31     -12.4771      2.00000
     32     -12.4378      2.00000
     33     -12.4070      2.00000
     34     -12.2077      2.00000
     35     -11.7805      2.00000
     36     -11.7340      2.00000
     37     -11.5171      2.00000
     38     -11.4188      2.00000
     39     -11.3303      2.00000
     40     -10.4300      2.00000
     41      -0.7994      2.00000
     42      -0.7885      2.00000
     43      -0.5673      2.00000
     44      -0.5017      2.00000
     45      -0.3620      2.00000
     46      -0.0010      2.00000
     47       0.0457      2.00000
     48       0.2034      2.00000
     49       0.3987      2.00000
     50       0.5023      2.00000
     51       0.5425      2.00000
     52       0.8350      2.00000
     53       0.8656      2.00000
     54       0.8744      2.00000
     55       1.0587      2.00000
     56       1.1350      2.00000
     57       1.1418      2.00000
     58       1.2572      2.00000
     59       1.3279      2.00000
     60       1.3507      2.00000
     61       1.3524      2.00000
     62       1.4272      2.00000
     63       1.5493      2.00000
     64       1.8423      2.00000
     65       4.9605      0.00000
     66       5.2632      0.00000
     67       5.4440      0.00000
     68       5.9571      0.00000
     69       6.9286      0.00000
     70       7.3366      0.00000
     71       7.4167      0.00000
     72       7.5626      0.00000
     73       7.9549      0.00000
     74       7.9661      0.00000
     75       8.2522      0.00000
     76       8.5440      0.00000

 k-point     3 :       0.5000    0.0000    0.0000
  band No.  band energies     occupation 
      1     -31.3835      2.00000
      2     -30.7434      2.00000
      3     -30.7076      2.00000
      4     -30.6558      2.00000
      5     -30.6552      2.00000
      6     -30.6365      2.00000
      7     -30.5415      2.00000
      8     -30.4671      2.00000
      9     -16.5898      2.00000
     10     -15.6816      2.00000
     11     -14.8004      2.00000
     12     -14.6889      2.00000
     13     -14.4219      2.00000
     14     -14.3309      2.00000
     15     -14.1996      2.00000
     16     -14.1893      2.00000
     17     -13.7574      2.00000
     18     -13.1944      2.00000
     19     -13.1137      2.00000
     20     -13.0050      2.00000
     21     -12.9087      2.00000
     22     -12.8681      2.00000
     23     -12.8595      2.00000
     24     -12.7848      2.00000
     25     -12.6909      2.00000
     26     -12.6682      2.00000
     27     -12.6441      2.00000
     28     -12.5790      2.00000
     29     -12.5681      2.00000
     30     -12.5076      2.00000
     31     -12.4563      2.00000
     32     -12.3701      2.00000
     33     -11.9783      2.00000
     34     -11.9468      2.00000
     35     -11.8146      2.00000
     36     -11.7637      2.00000
     37     -11.6599      2.00000
     38     -11.6564      2.00000
     39     -11.3765      2.00000
     40     -10.4906      2.00000
     41      -0.5717      2.00000
     42      -0.5350      2.00000
     43      -0.4540      2.00000
     44      -0.2301      2.00000
     45       0.0010      2.00000
     46       0.1801      2.00000
     47       0.2917      2.00000
     48       0.3320      2.00000
     49       0.3973      2.00000
     50       0.4341      2.00000
     51       0.5005      2.00000
     52       0.5738      2.00000
     53       0.6553      2.00000
     54       0.8207      2.00000
     55       0.8759      2.00000
     56       0.8808      2.00000
     57       0.9454      2.00000
     58       1.0560      2.00000
     59       1.1743      2.00000
     60       1.1896      2.00000
     61       1.2943      2.00000
     62       1.3099      2.00000
     63       1.4647      2.00000
     64       1.7301      2.00000
     65       5.5920      0.00000
     66       6.2366      0.00000
     67       6.2631      0.00000
     68       6.3718      0.00000
     69       6.7656      0.00000
     70       6.8188      0.00000
     71       7.1229      0.00000
     72       7.3890      0.00000
     73       7.6352      0.00000
     74       7.9882      0.00000
     75       8.0761      0.00000
     76       8.1225      0.00000

 k-point     4 :       0.0000    0.2500    0.0000
  band No.  band energies     occupation 
      1     -31.3856      2.00000
      2     -30.7564      2.00000
      3     -30.6866      2.00000
      4     -30.6751      2.00000
      5     -30.6466      2.00000
      6     -30.6331      2.00000
      7     -30.5427      2.00000
      8     -30.4635      2.00000
      9     -16.5988      2.00000
     10     -15.7333      2.00000
     11     -15.1281      2.00000
     12     -14.7589      2.00000
     13     -14.2970      2.00000
     14     -14.1951      2.00000
     15     -14.0031      2.00000
     16     -13.8292      2.00000
     17     -13.6659      2.00000
     18     -13.4328      2.00000
     19     -13.1446      2.00000
     20     -13.0751      2.00000
     21     -12.9666      2.00000
     22     -12.8485      2.00000
     23     -12.7849      2.00000
     24     -12.7178      2.00000
     25     -12.6961      2.00000
     26     -12.6341      2.00000
     27     -12.6227      2.00000
     28     -12.5843      2.00000
     29     -12.5541      2.00000
     30     -12.4787      2.00000
     31     -12.4327      2.00000
     32     -12.4149      2.00000
     33     -12.4050      2.00000
     34     -12.2325      2.00000
     35     -11.9298      2.00000
     36     -11.6593      2.00000
     37     -11.5093      2.00000
     38     -11.3851      2.00000
     39     -11.3536      2.00000
     40     -10.4101      2.00000
     41      -0.8310      2.00000
     42      -0.7999      2.00000
     43      -0.5470      2.00000
     44      -0.5209      2.00000
     45      -0.2577      2.00000
     46      -0.0185      2.00000
     47       0.0605      2.00000
     48       0.2148      2.00000
     49       0.3712      2.00000
     50       0.5099      2.00000
     51       0.5223      2.00000
     52       0.8230      2.00000
     53       0.8470      2.00000
     54       0.9009      2.00000
     55       1.0069      2.00000
     56       1.1375      2.00000
     57       1.1649      2.00000
     58       1.2895      2.00000
     59       1.3166      2.00000
     60       1.3466      2.00000
     61       1.3912      2.00000
     62       1.4052      2.00000
     63       1.6434      2.00000
     64       1.7029      2.00000
     65       4.9524      0.00000
     66       5.2912      0.00000
     67       5.4083      0.00000
     68       5.9377      0.00000
     69       6.7809      0.00000
     70       7.3117      0.00000
     71       7.4154      0.00000
     72       7.5018      0.00000
     73       7.7747      0.00000
     74       8.0085      0.00000
     75       8.2293      0.00000
     76       8.4837      0.00000

 k-point     5 :       0.2500    0.2500    0.0000
  band No.  band energies     occupation 
      1     -31.3852      2.00000
      2     -30.7534      2.00000
      3     -30.6782      2.00000
      4     -30.6767      2.00000
      5     -30.6569      2.00000
      6     -30.6317      2.00000
      7     -30.5438      2.00000
      8     -30.4640      2.00000
      9     -16.5974      2.00000
     10     -15.7229      2.00000
     11     -15.1096      2.00000
     12     -14.7169      2.00000
     13     -14.2872      2.00000
     14     -14.1376      2.00000
     15     -13.9305      2.00000
     16     -13.8426      2.00000
     17     -13.7057      2.00000
     18     -13.6426      2.00000
     19     -13.1466      2.00000
     20     -13.0727      2.00000
     21     -13.0047      2.00000
     22     -12.8918      2.00000
     23     -12.8588      2.00000
     24     -12.7373      2.00000
     25     -12.7171      2.00000
     26     -12.6748      2.00000
     27     -12.6098      2.00000
     28     -12.5964      2.00000
     29     -12.4852      2.00000
     30     -12.4529      2.00000
     31     -12.4525      2.00000
     32     -12.3997      2.00000
     33     -12.3858      2.00000
     34     -12.1127      2.00000
     35     -11.8991      2.00000
     36     -11.5889      2.00000
     37     -11.5253      2.00000
     38     -11.4037      2.00000
     39     -11.3629      2.00000
     40     -10.4156      2.00000
     41      -0.8542      2.00000
     42      -0.8236      2.00000
     43      -0.5532      2.00000
     44      -0.5154      2.00000
     45      -0.2685      2.00000
     46       0.0066      2.00000
     47       0.1455      2.00000
     48       0.1557      2.00000
     49       0.3244      2.00000
     50       0.5250      2.00000
     51       0.5439      2.00000
     52       0.7614      2.00000
     53       0.8460      2.00000
     54       0.9886      2.00000
     55       1.0067      2.00000
     56       1.0675      2.00000
     57       1.1700      2.00000
     58       1.2081      2.00000
     59       1.3656      2.00000
     60       1.4568      2.00000
     61       1.4614      2.00000
     62       1.5108      2.00000
     63       1.5367      2.00000
     64       1.7335      2.00000
     65       4.8722      0.00000
     66       5.4829      0.00000
     67       5.6879      0.00000
     68       5.9718      0.00000
     69       6.7403      0.00000
     70       7.2595      0.00000
     71       7.4218      0.00000
     72       7.4738      0.00000
     73       7.9435      0.00000
     74       8.1335      0.00000
     75       8.3316      0.00000
     76       8.4237      0.00000

 k-point     6 :       0.5000    0.2500    0.0000
  band No.  band energies     occupation 
      1     -31.3831      2.00000
      2     -30.7347      2.00000
      3     -30.6982      2.00000
      4     -30.6727      2.00000
      5     -30.6623      2.00000
      6     -30.6336      2.00000
      7     -30.5393      2.00000
[...]
      7     -30.5353      2.00000
      8     -30.4659      2.00000
      9     -16.5770      2.00000
     10     -15.6849      2.00000
     11     -14.9411      2.00000
     12     -14.5299      2.00000
     13     -14.4526      2.00000
     14     -14.3903      2.00000
     15     -14.1716      2.00000
     16     -14.1169      2.00000
     17     -13.5758      2.00000
     18     -13.2861      2.00000
     19     -13.1831      2.00000
     20     -13.1259      2.00000
     21     -12.9263      2.00000
     22     -12.9022      2.00000
     23     -12.8714      2.00000
     24     -12.7714      2.00000
     25     -12.7101      2.00000
     26     -12.6617      2.00000
     27     -12.6508      2.00000
     28     -12.6071      2.00000
     29     -12.5192      2.00000
     30     -12.4326      2.00000
     31     -12.4234      2.00000
     32     -12.3909      2.00000
     33     -12.1020      2.00000
     34     -12.0237      2.00000
     35     -11.8193      2.00000
     36     -11.7150      2.00000
     37     -11.6337      2.00000
     38     -11.6087      2.00000
     39     -11.2929      2.00000
     40     -10.4377      2.00000
     41      -0.7304      2.00000
     42      -0.7155      2.00000
     43      -0.4013      2.00000
     44      -0.3668      2.00000
     45      -0.1008      2.00000
     46       0.2177      2.00000
     47       0.3151      2.00000
     48       0.3240      2.00000
     49       0.3795      2.00000
     50       0.4033      2.00000
     51       0.4290      2.00000
     52       0.7987      2.00000
     53       0.8512      2.00000
     54       0.8629      2.00000
     55       0.8862      2.00000
     56       0.9580      2.00000
     57       1.0041      2.00000
     58       1.1006      2.00000
     59       1.1223      2.00000
     60       1.2271      2.00000
     61       1.3676      2.00000
     62       1.4171      2.00000
     63       1.4631      2.00000
     64       1.7003      2.00000
     65       5.4086      0.00000
     66       5.8842      0.00000
     67       6.0776      0.00000
     68       6.4698      0.00000
     69       6.6071      0.00000
     70       7.0315      0.00000
     71       7.1120      0.00000
     72       7.4194      0.00000
     73       7.5013      0.00000
     74       7.8334      0.00000
     75       8.1893      0.00000
     76       8.2361      0.00000

 k-point    17 :       0.5000   -0.2500    0.2500
  band No.  band energies     occupation 
      1     -31.3826      2.00000
      2     -30.7109      2.00000
      3     -30.7020      2.00000
      4     -30.6846      2.00000
      5     -30.6771      2.00000
      6     -30.6299      2.00000
      7     -30.5364      2.00000
      8     -30.4677      2.00000
      9     -16.5708      2.00000
     10     -15.6722      2.00000
     11     -14.7658      2.00000
     12     -14.6452      2.00000
     13     -14.3715      2.00000
     14     -14.2943      2.00000
     15     -14.1737      2.00000
     16     -14.1311      2.00000
     17     -13.7857      2.00000
     18     -13.2864      2.00000
     19     -13.2305      2.00000
     20     -13.0964      2.00000
     21     -12.9567      2.00000
     22     -12.9433      2.00000
     23     -12.9363      2.00000
     24     -12.7807      2.00000
     25     -12.7803      2.00000
     26     -12.7280      2.00000
     27     -12.7258      2.00000
     28     -12.6193      2.00000
     29     -12.5543      2.00000
     30     -12.4939      2.00000
     31     -12.4150      2.00000
     32     -12.3926      2.00000
     33     -11.8505      2.00000
     34     -11.8235      2.00000
     35     -11.7855      2.00000
     36     -11.7736      2.00000
     37     -11.5904      2.00000
     38     -11.5526      2.00000
     39     -11.3865      2.00000
     40     -10.4326      2.00000
     41      -0.7934      2.00000
     42      -0.5775      2.00000
     43      -0.4489      2.00000
     44      -0.2619      2.00000
     45      -0.0385      2.00000
     46       0.0589      2.00000
     47       0.0733      2.00000
     48       0.3040      2.00000
     49       0.3246      2.00000
     50       0.4250      2.00000
     51       0.4567      2.00000
     52       0.5154      2.00000
     53       0.8553      2.00000
     54       0.9026      2.00000
     55       0.9412      2.00000
     56       1.0440      2.00000
     57       1.1880      2.00000
     58       1.2190      2.00000
     59       1.2339      2.00000
     60       1.2872      2.00000
     61       1.3195      2.00000
     62       1.4337      2.00000
     63       1.5977      2.00000
     64       1.6770      2.00000
     65       5.5981      0.00000
     66       6.2268      0.00000
     67       6.3522      0.00000
     68       6.7686      0.00000
     69       7.0832      0.00000
     70       7.2440      0.00000
     71       7.2760      0.00000
     72       7.3811      0.00000
     73       7.7500      0.00000
     74       7.7534      0.00000
     75       7.8769      0.00000
     76       8.0912      0.00000

 k-point    18 :       0.0000    0.5000    0.5000
  band No.  band energies     occupation 
      1     -31.3810      2.00000
      2     -30.7272      2.00000
      3     -30.7161      2.00000
      4     -30.6782      2.00000
      5     -30.6561      2.00000
      6     -30.6327      2.00000
      7     -30.5308      2.00000
      8     -30.4689      2.00000
      9     -16.5778      2.00000
     10     -15.6762      2.00000
     11     -14.8439      2.00000
     12     -14.5859      2.00000
     13     -14.5130      2.00000
     14     -14.1897      2.00000
     15     -14.0819      2.00000
     16     -13.9695      2.00000
     17     -13.7923      2.00000
     18     -13.4356      2.00000
     19     -13.1770      2.00000
     20     -13.1755      2.00000
     21     -13.1429      2.00000
     22     -13.0489      2.00000
     23     -12.9510      2.00000
     24     -12.7190      2.00000
     25     -12.6830      2.00000
     26     -12.6660      2.00000
     27     -12.6190      2.00000
     28     -12.5727      2.00000
     29     -12.5050      2.00000
     30     -12.4942      2.00000
     31     -12.4679      2.00000
     32     -12.3718      2.00000
     33     -12.1005      2.00000
     34     -11.8991      2.00000
     35     -11.7366      2.00000
     36     -11.6137      2.00000
     37     -11.5680      2.00000
     38     -11.5654      2.00000
     39     -11.3475      2.00000
     40     -10.4388      2.00000
     41      -0.6688      2.00000
     42      -0.5270      2.00000
     43      -0.5168      2.00000
     44      -0.4194      2.00000
     45      -0.2769      2.00000
     46      -0.2712      2.00000
     47      -0.0693      2.00000
     48      -0.0009      2.00000
     49       0.3587      2.00000
     50       0.4603      2.00000
     51       0.6780      2.00000
     52       0.7861      2.00000
     53       0.9701      2.00000
     54       0.9755      2.00000
     55       1.0035      2.00000
     56       1.1322      2.00000
     57       1.1716      2.00000
     58       1.3065      2.00000
     59       1.3128      2.00000
     60       1.3427      2.00000
     61       1.3669      2.00000
     62       1.4691      2.00000
     63       1.4992      2.00000
     64       1.8300      2.00000
     65       5.5314      0.00000
     66       6.2897      0.00000
     67       6.4771      0.00000
     68       6.5634      0.00000
     69       7.2362      0.00000
     70       7.2775      0.00000
     71       7.3068      0.00000
     72       7.3406      0.00000
     73       7.5806      0.00000
     74       7.7389      0.00000
     75       7.9424      0.00000
     76       8.0205      0.00000


--------------------------------------------------------------------------------------------------------


 soft charge-density along one line, spin component           1
         0         1         2         3         4         5         6         7         8         9
 total charge-density along one line
 
 pseudopotential strength for first ion, spin component:           1
-11.948  -2.470  -0.027  -0.027  -0.000  -0.027  -0.027  -0.000
 -2.470  -1.962  -0.029  -0.029  -0.000  -0.028  -0.028  -0.000
 -0.027  -0.029 -15.107  -0.034   0.000 -14.820  -0.033   0.000
 -0.027  -0.029  -0.034 -15.107   0.000  -0.033 -14.820   0.000
 -0.000  -0.000   0.000   0.000 -15.133   0.000   0.000 -14.845
 -0.027  -0.028 -14.820  -0.033   0.000 -14.537  -0.032   0.000
 -0.027  -0.028  -0.033 -14.820   0.000  -0.032 -14.537   0.000
 -0.000  -0.000   0.000   0.000 -14.845   0.000   0.000 -14.562
  0.000   0.000  -0.000   0.000  -0.013  -0.000   0.000  -0.012
 -0.014  -0.010  -0.013  -0.013   0.000  -0.012  -0.012   0.000
  0.003   0.002   0.009  -0.017  -0.000   0.008  -0.017  -0.000
  0.000   0.000   0.000  -0.000  -0.013   0.000  -0.000  -0.012
 -0.006  -0.003   0.015  -0.000   0.000   0.014  -0.000   0.000
  0.000   0.000  -0.000   0.000  -0.021  -0.000   0.000  -0.020
 -0.022  -0.016  -0.021  -0.021   0.000  -0.020  -0.020   0.000
  0.005   0.003   0.014  -0.028  -0.000   0.014  -0.027  -0.000
  0.000   0.000   0.000  -0.000  -0.021   0.000  -0.000  -0.020
 -0.009  -0.005   0.024  -0.000   0.000   0.023  -0.000   0.000
 total augmentation occupancy for first ion, spin component:           1
  2.002   0.020  -0.115  -0.115   0.000   0.118   0.118   0.000  -0.000  -0.089   0.041   0.000  -0.071   0.000   0.080  -0.031
  0.020   0.850  -1.226  -1.226   0.000   1.229   1.229   0.000   0.000  -2.407   0.976   0.000  -1.691   0.000   1.346  -0.558
 -0.115  -1.226  25.285 -13.032  -0.000 -23.769  12.361   0.000  -0.000   2.538  11.613   0.000  14.173   0.000  -1.375  -6.468
 -0.115  -1.226 -13.032  25.285   0.000  12.361 -23.769   0.000   0.000   2.538 -18.081   0.000  -2.971   0.000  -1.375  10.133
  0.000   0.000  -0.000   0.000  10.106   0.000   0.000  -9.152  -0.827   0.000   0.000  -0.827   0.000   0.493   0.000   0.000
  0.118   1.229 -23.769  12.361   0.000  24.284 -11.697  -0.000   0.000  -2.372 -11.360   0.000 -13.898  -0.000   1.309   6.342
  0.118   1.229  12.361 -23.769   0.000 -11.697  24.284   0.000   0.000  -2.372  17.716   0.000   2.889  -0.000   1.309  -9.946
  0.000   0.000   0.000   0.000  -9.152  -0.000   0.000  10.220   0.951   0.000   0.000   0.951  -0.000  -0.545   0.000  -0.000
 -0.000   0.000  -0.000   0.000  -0.827   0.000   0.000   0.951   6.686   0.000   0.000  -2.214   0.000  -3.692   0.000   0.000
 -0.089  -2.407   2.538   2.538   0.000  -2.372  -2.372   0.000   0.000  21.118  -5.403   0.000   9.359   0.000 -12.009   3.065
  0.041   0.976  11.613 -18.081  -0.000 -11.360  17.716   0.000   0.000  -5.403  23.063   0.000   4.749   0.000   3.049 -12.999
  0.000   0.000   0.000   0.000  -0.827   0.000   0.000   0.951  -2.214   0.000   0.000   6.686   0.000   1.234   0.000   0.000
 -0.071  -1.691  14.173  -2.971   0.000 -13.898   2.889  -0.000   0.000   9.359   4.749   0.000  17.580  -0.000  -5.281  -2.654
  0.000   0.000   0.000   0.000   0.493  -0.000  -0.000  -0.545  -3.692   0.000   0.000   1.234  -0.000   2.040  -0.000  -0.000
  0.080   1.346  -1.375  -1.375   0.000   1.309   1.309   0.000   0.000 -12.009   3.049   0.000  -5.281  -0.000   6.844  -1.732
 -0.031  -0.558  -6.468  10.133   0.000   6.342  -9.946   0.000   0.000   3.065 -12.999   0.000  -2.654  -0.000  -1.732   7.341
  0.000   0.000   0.000   0.000   0.493   0.000  -0.000  -0.545   1.234   0.000  -0.000  -3.692   0.000  -0.687   0.000   0.000
  0.054   0.966  -7.967   1.618   0.000   7.823  -1.581   0.000  -0.000  -5.308  -2.654   0.000  -9.934   0.000   3.001   1.486


------------------------ aborting loop because EDIFF is reached ----------------------------------------


    CHARGE:  cpu time    0.8520: real time    0.8517
    FORLOC:  cpu time    0.0200: real time    0.0186
    FORNL :  cpu time    4.4760: real time    4.4769
    STRESS:  cpu time    8.7880: real time    8.7938
    FORCOR:  cpu time    0.1640: real time    0.1616
    FORHAR:  cpu time    0.0480: real time    0.0508
    MIXING:  cpu time    0.0080: real time    0.0067
    OFIELD:  cpu time    0.0000: real time    0.0000

  FORCE on cell =-STRESS in cart. coord.  units (eV):
  Direction    XX          YY          ZZ          XY          YZ          ZX
  --------------------------------------------------------------------------------------
  Alpha Z   796.84036   796.84036   796.84036
  Ewald   -2844.14216 -2746.50638 -2746.50638     0.00000  -142.99967     0.00000
  Hartree   656.38214   686.98912   686.98912     0.00000   -85.16507     0.00000
  E(xc)    -537.58554  -537.37655  -537.37655     0.00000    -0.15058     0.00000
  Local     295.86043   166.88476   166.88476     0.00004   232.15271     0.00004
  n-local  -606.44866  -612.12559  -611.75422    -1.14572     2.93142     0.01815
  augment    79.54931    80.33856    80.33856    -0.00005    -0.51643    -0.00005
  Kinetic  2159.68445  2178.07215  2177.87716     2.84054   -12.32156    -0.05791
  Fock        0.00000     0.00000     0.00000     0.00000     0.00000     0.00000
  -------------------------------------------------------------------------------------
  Total       0.14032    13.20462    13.20462     0.00000    -6.06912     0.00000
  in kB       0.83058    78.16020    78.16020     0.00000   -35.92408     0.00000
  external pressure =       52.38 kB  Pullay stress =        0.00 kB


 VOLUME and BASIS-vectors are now :
 -----------------------------------------------------------------------------
  energy-cutoff  :      800.00
  volume of cell :      270.68
      direct lattice vectors                 reciprocal lattice vectors
     0.000000000  5.134209980  5.134209980    -0.097385966  0.097385966  0.097385966
     5.134209980  0.000000000  5.134209980     0.097385966 -0.097385966  0.097385966
     5.134209980  5.134209980  0.000000000     0.097385966  0.097385966 -0.097385966

  length of vectors
     7.260869386  7.260869386  7.260869386     0.168677442  0.168677442  0.168677442


 FORCES acting on ions
    electron-ion (+dipol)            ewald-force                    non-local-force                 convergence-correction
 -----------------------------------------------------------------------------------------------
   -.282E-08 0.160E+03 0.160E+03   -.355E-13 -.168E+03 -.168E+03   0.000E+00 0.743E+00 0.743E+00   0.128E-11 0.571E-04 0.571E-04
   0.128E-08 -.949E+02 -.949E+02   0.142E-13 0.101E+03 0.101E+03   0.000E+00 -.350E+01 -.350E+01   -.139E-11 -.674E-04 -.674E-04
   -.458E+02 0.170E+02 -.252E+02   0.486E+02 -.175E+02 0.263E+02   -.160E+01 0.180E+00 -.442E+00   -.330E-04 -.445E-05 -.701E-05
   0.458E+02 -.252E+02 0.170E+02   -.486E+02 0.263E+02 -.175E+02   0.160E+01 -.442E+00 0.180E+00   0.330E-04 -.701E-05 -.445E-05
   -.458E+02 -.252E+02 0.170E+02   0.486E+02 0.263E+02 -.175E+02   -.160E+01 -.442E+00 0.180E+00   -.330E-04 -.701E-05 -.445E-05
   0.458E+02 0.170E+02 -.252E+02   -.486E+02 -.175E+02 0.263E+02   0.160E+01 0.180E+00 -.442E+00   0.330E-04 -.445E-05 -.701E-05
   0.619E-09 0.170E+02 0.170E+02   0.142E-13 -.185E+02 -.185E+02   0.434E-18 0.958E+00 0.958E+00   0.132E-11 0.265E-04 0.265E-04
   -.555E-09 -.136E+02 -.136E+02   0.157E-13 0.147E+02 0.147E+02   0.347E-17 -.695E+00 -.695E+00   -.435E-12 -.166E-04 -.166E-04
   -.114E+02 -.949E+01 -.949E+01   0.119E+02 0.983E+01 0.983E+01   -.866E+00 -.535E+00 -.535E+00   -.323E-04 0.138E-05 0.138E-05
   0.252E+02 0.171E+02 0.171E+02   -.263E+02 -.181E+02 -.181E+02   0.112E+01 0.129E+01 0.129E+01   0.326E-05 0.782E-05 0.782E-05
   0.145E-06 -.741E+02 0.627E+02   -.139E-13 0.787E+02 -.670E+02   0.000E+00 0.702E+00 0.285E+01   0.282E-10 -.139E-03 0.896E-04
   -.711E-07 0.273E+01 -.570E+02   -.166E-13 -.278E+01 0.603E+02   0.000E+00 0.148E-01 -.403E+01   0.102E-10 -.247E-04 -.259E-04
   0.145E-06 0.627E+02 -.741E+02   -.114E-13 -.670E+02 0.787E+02   0.000E+00 0.285E+01 0.702E+00   0.282E-10 0.896E-04 -.139E-03
   -.709E-07 -.570E+02 0.273E+01   -.139E-13 0.603E+02 -.278E+01   0.000E+00 -.403E+01 0.148E-01   0.102E-10 -.259E-04 -.247E-04
   -.252E+02 0.171E+02 0.171E+02   0.263E+02 -.181E+02 -.181E+02   -.112E+01 0.129E+01 0.129E+01   -.326E-05 0.782E-05 0.782E-05
   0.114E+02 -.949E+01 -.949E+01   -.119E+02 0.983E+01 0.983E+01   0.866E+00 -.535E+00 -.535E+00   0.323E-04 0.138E-05 0.138E-05
 -----------------------------------------------------------------------------------------------
   0.200E-06 0.198E+01 0.198E+01   -.355E-14 0.160E-13 0.178E-14   0.222E-15 -.198E+01 -.198E+01   0.166E-09 -.105E-03 -.105E-03
 
 
 POSITION                                       TOTAL-FORCE (eV/Angst)
 -----------------------------------------------------------------------------------
      0.00000      0.70711      0.70711        -0.000000     -7.137714     -7.137714
      0.00000      2.56710      2.56710         0.000000      3.083115      3.083115
      2.56710      0.00000      2.56710         1.252451     -0.282632      0.625275
      2.56710      2.56710      5.13421        -1.252451      0.625275     -0.282632
      2.56710      2.56710      0.00000         1.252451      0.625275     -0.282632
      2.56710      5.13421      2.56710        -1.252451     -0.282632      0.625275
      5.13421      2.56710      2.56710         0.000000     -0.479588     -0.479588
      5.13421      5.13421      5.13421         0.000000      0.444042      0.444042
      2.56710      2.56710      2.56710        -0.314408     -0.185925     -0.185925
      2.56710      5.13421      5.13421         0.064926      0.313458      0.313458
      5.13421      2.56710      5.13421         0.000000      5.297213     -1.433366
      5.13421      5.13421      7.70131         0.000000     -0.035463     -0.678588
      5.13421      5.13421      2.56710         0.000000     -1.433366      5.297213
      5.13421      7.70131      5.13421         0.000000     -0.678588     -0.035463
      7.70131      5.13421      5.13421        -0.064926      0.313458      0.313458
      7.70131      7.70131      7.70131         0.314408     -0.185925     -0.185925
 -----------------------------------------------------------------------------------
    total drift:                                0.000000      0.000013      0.000013


--------------------------------------------------------------------------------------------------------



  FREE ENERGIE OF THE ION-ELECTRON SYSTEM (eV)
  ---------------------------------------------------
  free  energy   TOTEN  =       -96.73546917 eV

  energy  without entropy=      -96.73546917  energy(sigma->0) =      -96.73546917
 


--------------------------------------------------------------------------------------------------------


    POTLOK:  cpu time    0.6680: real time    0.6683


--------------------------------------------------------------------------------------------------------


     LOOP+:  cpu time  205.5800: real time  205.6759
    4ORBIT:  cpu time    0.0000: real time    0.0000

 total amount of memory used by VASP on root node    97735. kBytes
========================================================================

   base      :      30000. kBytes
   nonl-proj :       9520. kBytes
   fftplans  :      26995. kBytes
   grid      :      11753. kBytes
   one-center:         31. kBytes
   wavefun   :      19436. kBytes
 
  
  
 General timing and accounting informations for this job:
 ========================================================
  
                  Total CPU time used (sec):      209.088
                            User time (sec):      207.672
                          System time (sec):        1.416
                         Elapsed time (sec):      209.204
  
                   Maximum memory used (kb):      200452.
                   Average memory used (kb):           0.
  
                          Minor page faults:       561419
                          Major page faults:            0
                 Voluntary context switches:           64
