   2
   1   1
     2.108031179800000    -0.000000000000000    -0.000000000000000
    -0.000000000000000     2.108031179800000    -0.000000000000000
    -0.000000000000000    -0.000000000000000     2.108031179800000
   1   2
    -2.107479281465974    -0.000000000000000    -0.000000000000000
    -0.000000000000000    -2.107479281465974    -0.000000000000000
    -0.000000000000000    -0.000000000000000    -2.107479281465974
   2   1
    -2.107479281465974    -0.000000000000000    -0.000000000000000
    -0.000000000000000    -2.107479281465974    -0.000000000000000
    -0.000000000000000    -0.000000000000000    -2.107479281465974
   2   2
     2.106927360000000    -0.000000000000000    -0.000000000000000
    -0.000000000000000     2.106927360000000    -0.000000000000000
    -0.000000000000000    -0.000000000000000     2.106927360000000
