nqpoint: 202    
npath: 2      
segment_nqpoint:
- 101
- 101
reciprocal_lattice:
- [  -0.19477193,   0.19477193,   0.19477193 ] # a*
- [   0.19477193,  -0.19477193,   0.19477193 ] # b*
- [   0.19477193,   0.19477193,  -0.19477193 ] # c*
natom: 2      
lattice:
- [     0.0000000000000000,     2.5671049901180245,     2.5671049901180245 ] # a
- [     2.5671049901180245,     0.0000000000000000,     2.5671049901180245 ] # b
- [     2.5671049901180245,     2.5671049901180245,     0.0000000000000000 ] # c
atoms:
- symbol: Sr # 1
  position: [  0.0000000000000000,  0.0000000000000000,  0.0000000000000000 ]
  mass: 87.620000
- symbol: O  # 2
  position: [  0.5000000000000000,  0.5000000000000000,  0.5000000000000000 ]
  mass: 15.999400
supercell_matrix:
- [    4,    0,    0 ]
- [    0,    4,    0 ]
- [    0,    0,    4 ]

phonon:
- q-position: [    0.5000000,    0.0000000,    0.5000000 ]
  distance:    0.0000000
  label: 'X'
  band:
  - # 1
    frequency:    3.7342649548
  - # 2
    frequency:    3.7342649548
  - # 3
    frequency:    5.6601024503
  - # 4
    frequency:    7.0392882197
  - # 5
    frequency:    7.0392882197
  - # 6
    frequency:    9.2535672034

- q-position: [    0.4950000,    0.0000000,    0.4950000 ]
  distance:    0.0019477
  band:
  - # 1
    frequency:    3.7341595151
  - # 2
    frequency:    3.7341595151
  - # 3
    frequency:    5.6596250902
  - # 4
    frequency:    7.0402996638
  - # 5
    frequency:    7.0402996638
  - # 6
    frequency:    9.2538639642

- q-position: [    0.4900000,    0.0000000,    0.4900000 ]
  distance:    0.0038954
  band:
  - # 1
    frequency:    3.7338421616
  - # 2
    frequency:    3.7338421616
  - # 3
    frequency:    5.6581927081
  - # 4
    frequency:    7.0433285871
  - # 5
    frequency:    7.0433285871
  - # 6
    frequency:    9.2547510754

- q-position: [    0.4850000,    0.0000000,    0.4850000 ]
  distance:    0.0058432
  band:
  - # 1
    frequency:    3.7333098034
  - # 2
    frequency:    3.7333098034
  - # 3
    frequency:    5.6558044010
  - # 4
    frequency:    7.0483588009
  - # 5
    frequency:    7.0483588009
  - # 6
    frequency:    9.2562190408

- q-position: [    0.4800000,    0.0000000,    0.4800000 ]
  distance:    0.0077909
  band:
  - # 1
    frequency:    3.7325573275
  - # 2
    frequency:    3.7325573275
  - # 3
    frequency:    5.6524586704
  - # 4
    frequency:    7.0553634497
  - # 5
    frequency:    7.0553634497
  - # 6
    frequency:    9.2582520893

- q-position: [    0.4750000,    0.0000000,    0.4750000 ]
  distance:    0.0097386
  band:
  - # 1
    frequency:    3.7315776563
  - # 2
    frequency:    3.7315776563
  - # 3
    frequency:    5.6481534321
  - # 4
    frequency:    7.0643051980
  - # 5
    frequency:    7.0643051980
  - # 6
    frequency:    9.2608282589

- q-position: [    0.4700000,    0.0000000,    0.4700000 ]
  distance:    0.0116863
  band:
  - # 1
    frequency:    3.7303618242
  - # 2
    frequency:    3.7303618242
  - # 3
    frequency:    5.6428860298
  - # 4
    frequency:    7.0751364884
  - # 5
    frequency:    7.0751364884
  - # 6
    frequency:    9.2639195124

- q-position: [    0.4650000,    0.0000000,    0.4650000 ]
  distance:    0.0136340
  band:
  - # 1
    frequency:    3.7288990728
  - # 2
    frequency:    3.7288990728
  - # 3
    frequency:    5.6366532517
  - # 4
    frequency:    7.0877998682
  - # 5
    frequency:    7.0877998682
  - # 6
    frequency:    9.2674918853

- q-position: [    0.4600000,    0.0000000,    0.4600000 ]
  distance:    0.0155818
  band:
  - # 1
    frequency:    3.7271769611
  - # 2
    frequency:    3.7271769611
  - # 3
    frequency:    5.6294513510
  - # 4
    frequency:    7.1022283802
  - # 5
    frequency:    7.1022283802
  - # 6
    frequency:    9.2715056636

- q-position: [    0.4550000,    0.0000000,    0.4550000 ]
  distance:    0.0175295
  band:
  - # 1
    frequency:    3.7251814869
  - # 2
    frequency:    3.7251814869
  - # 3
    frequency:    5.6212760686
  - # 4
    frequency:    7.1183460123
  - # 5
    frequency:    7.1183460123
  - # 6
    frequency:    9.2759155904

- q-position: [    0.4500000,    0.0000000,    0.4500000 ]
  distance:    0.0194772
  band:
  - # 1
    frequency:    3.7228972176
  - # 2
    frequency:    3.7228972176
  - # 3
    frequency:    5.6121226590
  - # 4
    frequency:    7.1360682016
  - # 5
    frequency:    7.1360682016
  - # 6
    frequency:    9.2806710995

- q-position: [    0.4450000,    0.0000000,    0.4450000 ]
  distance:    0.0214249
  band:
  - # 1
    frequency:    3.7203074257
  - # 2
    frequency:    3.7203074257
  - # 3
    frequency:    5.6019859174
  - # 4
    frequency:    7.1553023864
  - # 5
    frequency:    7.1553023864
  - # 6
    frequency:    9.2857165745

- q-position: [    0.4400000,    0.0000000,    0.4400000 ]
  distance:    0.0233726
  band:
  - # 1
    frequency:    3.7173942269
  - # 2
    frequency:    3.7173942269
  - # 3
    frequency:    5.5908602100
  - # 4
    frequency:    7.1759485983
  - # 5
    frequency:    7.1759485983
  - # 6
    frequency:    9.2909916308

- q-position: [    0.4350000,    0.0000000,    0.4350000 ]
  distance:    0.0253204
  band:
  - # 1
    frequency:    3.7141387177
  - # 2
    frequency:    3.7141387177
  - # 3
    frequency:    5.5787395045
  - # 4
    frequency:    7.1979000905
  - # 5
    frequency:    7.1979000905
  - # 6
    frequency:    9.2964314191

- q-position: [    0.4300000,    0.0000000,    0.4300000 ]
  distance:    0.0272681
  band:
  - # 1
    frequency:    3.7105211089
  - # 2
    frequency:    3.7105211089
  - # 3
    frequency:    5.5656174024
  - # 4
    frequency:    7.2210439921
  - # 5
    frequency:    7.2210439921
  - # 6
    frequency:    9.3019669468

- q-position: [    0.4250000,    0.0000000,    0.4250000 ]
  distance:    0.0292158
  band:
  - # 1
    frequency:    3.7065208552
  - # 2
    frequency:    3.7065208552
  - # 3
    frequency:    5.5514871718
  - # 4
    frequency:    7.2452619833
  - # 5
    frequency:    7.2452619833
  - # 6
    frequency:    9.3075254168

- q-position: [    0.4200000,    0.0000000,    0.4200000 ]
  distance:    0.0311635
  band:
  - # 1
    frequency:    3.7021167771
  - # 2
    frequency:    3.7021167771
  - # 3
    frequency:    5.5363417806
  - # 4
    frequency:    7.2704309840
  - # 5
    frequency:    7.2704309840
  - # 6
    frequency:    9.3130305797

- q-position: [    0.4150000,    0.0000000,    0.4150000 ]
  distance:    0.0331112
  band:
  - # 1
    frequency:    3.6972871745
  - # 2
    frequency:    3.6972871745
  - # 3
    frequency:    5.5201739302
  - # 4
    frequency:    7.2964238486
  - # 5
    frequency:    7.2964238486
  - # 6
    frequency:    9.3184030983

- q-position: [    0.4100000,    0.0000000,    0.4100000 ]
  distance:    0.0350589
  band:
  - # 1
    frequency:    3.6920099322
  - # 2
    frequency:    3.6920099322
  - # 3
    frequency:    5.5029760888
  - # 4
    frequency:    7.3231100620
  - # 5
    frequency:    7.3231100620
  - # 6
    frequency:    9.3235609205

- q-position: [    0.4050000,    0.0000000,    0.4050000 ]
  distance:    0.0370067
  band:
  - # 1
    frequency:    3.6862626155
  - # 2
    frequency:    3.6862626155
  - # 3
    frequency:    5.4847405237
  - # 4
    frequency:    7.3503564285
  - # 5
    frequency:    7.3503564285
  - # 6
    frequency:    9.3284196604

- q-position: [    0.4000000,    0.0000000,    0.4000000 ]
  distance:    0.0389544
  band:
  - # 1
    frequency:    3.6800225562
  - # 2
    frequency:    3.6800225562
  - # 3
    frequency:    5.4654593348
  - # 4
    frequency:    7.3780277509
  - # 5
    frequency:    7.3780277509
  - # 6
    frequency:    9.3328929837

- q-position: [    0.3950000,    0.0000000,    0.3950000 ]
  distance:    0.0409021
  band:
  - # 1
    frequency:    3.6732669307
  - # 2
    frequency:    3.6732669307
  - # 3
    frequency:    5.4451244854
  - # 4
    frequency:    7.4059874931
  - # 5
    frequency:    7.4059874931
  - # 6
    frequency:    9.3368929953

- q-position: [    0.3900000,    0.0000000,    0.3900000 ]
  distance:    0.0428498
  band:
  - # 1
    frequency:    3.6659728276
  - # 2
    frequency:    3.6659728276
  - # 3
    frequency:    5.4237278331
  - # 4
    frequency:    7.4340984228
  - # 5
    frequency:    7.4340984228
  - # 6
    frequency:    9.3403306291

- q-position: [    0.3850000,    0.0000000,    0.3850000 ]
  distance:    0.0447975
  band:
  - # 1
    frequency:    3.6581173085
  - # 2
    frequency:    3.6581173085
  - # 3
    frequency:    5.4012611602
  - # 4
    frequency:    7.4622232314
  - # 5
    frequency:    7.4622232314
  - # 6
    frequency:    9.3431160348

- q-position: [    0.3800000,    0.0000000,    0.3800000 ]
  distance:    0.0467453
  band:
  - # 1
    frequency:    3.6496774611
  - # 2
    frequency:    3.6496774611
  - # 3
    frequency:    5.3777162014
  - # 4
    frequency:    7.4902251265
  - # 5
    frequency:    7.4902251265
  - # 6
    frequency:    9.3451589641

- q-position: [    0.3750000,    0.0000000,    0.3750000 ]
  distance:    0.0486930
  band:
  - # 1
    frequency:    3.6406304448
  - # 2
    frequency:    3.6406304448
  - # 3
    frequency:    5.3530846723
  - # 4
    frequency:    7.5179683978
  - # 5
    frequency:    7.5179683978
  - # 6
    frequency:    9.3463691504

- q-position: [    0.3700000,    0.0000000,    0.3700000 ]
  distance:    0.0506407
  band:
  - # 1
    frequency:    3.6309535312
  - # 2
    frequency:    3.6309535312
  - # 3
    frequency:    5.3273582946
  - # 4
    frequency:    7.5453189513
  - # 5
    frequency:    7.5453189513
  - # 6
    frequency:    9.3466566843

- q-position: [    0.3650000,    0.0000000,    0.3650000 ]
  distance:    0.0525884
  band:
  - # 1
    frequency:    3.6206241389
  - # 2
    frequency:    3.6206241389
  - # 3
    frequency:    5.3005288217
  - # 4
    frequency:    7.5721448146
  - # 5
    frequency:    7.5721448146
  - # 6
    frequency:    9.3459323820

- q-position: [    0.3600000,    0.0000000,    0.3600000 ]
  distance:    0.0545361
  band:
  - # 1
    frequency:    3.6096198635
  - # 2
    frequency:    3.6096198635
  - # 3
    frequency:    5.2725880618
  - # 4
    frequency:    7.5983166094
  - # 5
    frequency:    7.5983166094
  - # 6
    frequency:    9.3441081447

- q-position: [    0.3550000,    0.0000000,    0.3550000 ]
  distance:    0.0564839
  band:
  - # 1
    frequency:    3.5979185043
  - # 2
    frequency:    3.5979185043
  - # 3
    frequency:    5.2435278999
  - # 4
    frequency:    7.6237079944
  - # 5
    frequency:    7.6237079944
  - # 6
    frequency:    9.3410973110

- q-position: [    0.3500000,    0.0000000,    0.3500000 ]
  distance:    0.0584316
  band:
  - # 1
    frequency:    3.5854980866
  - # 2
    frequency:    3.5854980866
  - # 3
    frequency:    5.2133403184
  - # 4
    frequency:    7.6481960763
  - # 5
    frequency:    7.6481960763
  - # 6
    frequency:    9.3368149980

- q-position: [    0.3450000,    0.0000000,    0.3450000 ]
  distance:    0.0603793
  band:
  - # 1
    frequency:    3.5723368813
  - # 2
    frequency:    3.5723368813
  - # 3
    frequency:    5.1820174155
  - # 4
    frequency:    7.6716617912
  - # 5
    frequency:    7.6716617912
  - # 6
    frequency:    9.3311784338

- q-position: [    0.3400000,    0.0000000,    0.3400000 ]
  distance:    0.0623270
  band:
  - # 1
    frequency:    3.5584134224
  - # 2
    frequency:    3.5584134224
  - # 3
    frequency:    5.1495514231
  - # 4
    frequency:    7.6939902578
  - # 5
    frequency:    7.6939902578
  - # 6
    frequency:    9.3241072787

- q-position: [    0.3350000,    0.0000000,    0.3350000 ]
  distance:    0.0642747
  band:
  - # 1
    frequency:    3.5437065207
  - # 2
    frequency:    3.5437065207
  - # 3
    frequency:    5.1159347214
  - # 4
    frequency:    7.7150711020
  - # 5
    frequency:    7.7150711020
  - # 6
    frequency:    9.3155239363

- q-position: [    0.3300000,    0.0000000,    0.3300000 ]
  distance:    0.0662225
  band:
  - # 1
    frequency:    3.5281952768
  - # 2
    frequency:    3.5281952768
  - # 3
    frequency:    5.0811598533
  - # 4
    frequency:    7.7347987558
  - # 5
    frequency:    7.7347987558
  - # 6
    frequency:    9.3053538529

- q-position: [    0.3250000,    0.0000000,    0.3250000 ]
  distance:    0.0681702
  band:
  - # 1
    frequency:    3.5118590910
  - # 2
    frequency:    3.5118590910
  - # 3
    frequency:    5.0452195355
  - # 4
    frequency:    7.7530727312
  - # 5
    frequency:    7.7530727312
  - # 6
    frequency:    9.2935258074

- q-position: [    0.3200000,    0.0000000,    0.3200000 ]
  distance:    0.0701179
  band:
  - # 1
    frequency:    3.4946776717
  - # 2
    frequency:    3.4946776717
  - # 3
    frequency:    5.0081066687
  - # 4
    frequency:    7.7697978709
  - # 5
    frequency:    7.7697978709
  - # 6
    frequency:    9.2799721890

- q-position: [    0.3150000,    0.0000000,    0.3150000 ]
  distance:    0.0720656
  band:
  - # 1
    frequency:    3.4766310414
  - # 2
    frequency:    3.4766310414
  - # 3
    frequency:    4.9698143448
  - # 4
    frequency:    7.7848845782
  - # 5
    frequency:    7.7848845782
  - # 6
    frequency:    9.2646292653

- q-position: [    0.3100000,    0.0000000,    0.3100000 ]
  distance:    0.0740133
  band:
  - # 1
    frequency:    3.4576995411
  - # 2
    frequency:    3.4576995411
  - # 3
    frequency:    4.9303358528
  - # 4
    frequency:    7.7982490254
  - # 5
    frequency:    7.7982490254
  - # 6
    frequency:    9.2474374399

- q-position: [    0.3050000,    0.0000000,    0.3050000 ]
  distance:    0.0759611
  band:
  - # 1
    frequency:    3.4378638330
  - # 2
    frequency:    3.4378638330
  - # 3
    frequency:    4.8896646814
  - # 4
    frequency:    7.8098133454
  - # 5
    frequency:    7.8098133454
  - # 6
    frequency:    9.2283414994

- q-position: [    0.3000000,    0.0000000,    0.3000000 ]
  distance:    0.0779088
  band:
  - # 1
    frequency:    3.4171049001
  - # 2
    frequency:    3.4171049001
  - # 3
    frequency:    4.8477945200
  - # 4
    frequency:    7.8195058050
  - # 5
    frequency:    7.8195058050
  - # 6
    frequency:    9.2072908511

- q-position: [    0.2950000,    0.0000000,    0.2950000 ]
  distance:    0.0798565
  band:
  - # 1
    frequency:    3.3954040447
  - # 2
    frequency:    3.3954040447
  - # 3
    frequency:    4.8047192569
  - # 4
    frequency:    7.8272609641
  - # 5
    frequency:    7.8272609641
  - # 6
    frequency:    9.1842397521

- q-position: [    0.2900000,    0.0000000,    0.2900000 ]
  distance:    0.0818042
  band:
  - # 1
    frequency:    3.3727428847
  - # 2
    frequency:    3.3727428847
  - # 3
    frequency:    4.7604329750
  - # 4
    frequency:    7.8330198191
  - # 5
    frequency:    7.8330198191
  - # 6
    frequency:    9.1591475279

- q-position: [    0.2850000,    0.0000000,    0.2850000 ]
  distance:    0.0837519
  band:
  - # 1
    frequency:    3.3491033472
  - # 2
    frequency:    3.3491033472
  - # 3
    frequency:    4.7149299441
  - # 4
    frequency:    7.8367299349
  - # 5
    frequency:    7.8367299349
  - # 6
    frequency:    9.1319787845

- q-position: [    0.2800000,    0.0000000,    0.2800000 ]
  distance:    0.0856997
  band:
  - # 1
    frequency:    3.3244676598
  - # 2
    frequency:    3.3244676598
  - # 3
    frequency:    4.6682046119
  - # 4
    frequency:    7.8383455642
  - # 5
    frequency:    7.8383455642
  - # 6
    frequency:    9.1027036109

- q-position: [    0.2750000,    0.0000000,    0.2750000 ]
  distance:    0.0876474
  band:
  - # 1
    frequency:    3.2988183410
  - # 2
    frequency:    3.2988183410
  - # 3
    frequency:    4.6202515902
  - # 4
    frequency:    7.8378277560
  - # 5
    frequency:    7.8378277560
  - # 6
    frequency:    9.0712977757

- q-position: [    0.2700000,    0.0000000,    0.2700000 ]
  distance:    0.0895951
  band:
  - # 1
    frequency:    3.2721381865
  - # 2
    frequency:    3.2721381865
  - # 3
    frequency:    4.5710656403
  - # 4
    frequency:    7.8351444544
  - # 5
    frequency:    7.8351444544
  - # 6
    frequency:    9.0377429149

- q-position: [    0.2650000,    0.0000000,    0.2650000 ]
  distance:    0.0915428
  band:
  - # 1
    frequency:    3.2444102550
  - # 2
    frequency:    3.2444102550
  - # 3
    frequency:    4.5206416534
  - # 4
    frequency:    7.8302705881
  - # 5
    frequency:    7.8302705881
  - # 6
    frequency:    9.0020267145

- q-position: [    0.2600000,    0.0000000,    0.2600000 ]
  distance:    0.0934905
  band:
  - # 1
    frequency:    3.2156178513
  - # 2
    frequency:    3.2156178513
  - # 3
    frequency:    4.4689746299
  - # 4
    frequency:    7.8231881508
  - # 5
    frequency:    7.8231881508
  - # 6
    frequency:    8.9641430861

- q-position: [    0.2550000,    0.0000000,    0.2550000 ]
  distance:    0.0954382
  band:
  - # 1
    frequency:    3.1857445078
  - # 2
    frequency:    3.1857445078
  - # 3
    frequency:    4.4160596549
  - # 4
    frequency:    7.8138862739
  - # 5
    frequency:    7.8138862739
  - # 6
    frequency:    8.9240923360

- q-position: [    0.2500000,    0.0000000,    0.2500000 ]
  distance:    0.0973860
  band:
  - # 1
    frequency:    3.1547739646
  - # 2
    frequency:    3.1547739646
  - # 3
    frequency:    4.3618918712
  - # 4
    frequency:    7.8023612908
  - # 5
    frequency:    7.8023612908
  - # 6
    frequency:    8.8818813297

- q-position: [    0.2450000,    0.0000000,    0.2450000 ]
  distance:    0.0993337
  band:
  - # 1
    frequency:    3.1226901481
  - # 2
    frequency:    3.1226901481
  - # 3
    frequency:    4.3064664497
  - # 4
    frequency:    7.7886167934
  - # 5
    frequency:    7.7886167934
  - # 6
    frequency:    8.8375236491

- q-position: [    0.2400000,    0.0000000,    0.2400000 ]
  distance:    0.1012814
  band:
  - # 1
    frequency:    3.0894771494
  - # 2
    frequency:    3.0894771494
  - # 3
    frequency:    4.2497785579
  - # 4
    frequency:    7.7726636804
  - # 5
    frequency:    7.7726636804
  - # 6
    frequency:    8.7910397449

- q-position: [    0.2350000,    0.0000000,    0.2350000 ]
  distance:    0.1032291
  band:
  - # 1
    frequency:    3.0551192020
  - # 2
    frequency:    3.0551192020
  - # 3
    frequency:    4.1918233259
  - # 4
    frequency:    7.7545201982
  - # 5
    frequency:    7.7545201982
  - # 6
    frequency:    8.7424570830

- q-position: [    0.2300000,    0.0000000,    0.2300000 ]
  distance:    0.1051768
  band:
  - # 1
    frequency:    3.0196006606
  - # 2
    frequency:    3.0196006606
  - # 3
    frequency:    4.1325958116
  - # 4
    frequency:    7.7342119718
  - # 5
    frequency:    7.7342119718
  - # 6
    frequency:    8.6918102847

- q-position: [    0.2250000,    0.0000000,    0.2250000 ]
  distance:    0.1071246
  band:
  - # 1
    frequency:    2.9829059797
  - # 2
    frequency:    2.9829059797
  - # 3
    frequency:    4.0720909643
  - # 4
    frequency:    7.7117720277
  - # 5
    frequency:    7.7117720277
  - # 6
    frequency:    8.6391412594

- q-position: [    0.2200000,    0.0000000,    0.2200000 ]
  distance:    0.1090723
  band:
  - # 1
    frequency:    2.9450196962
  - # 2
    frequency:    2.9450196962
  - # 3
    frequency:    4.0103035885
  - # 4
    frequency:    7.6872408061
  - # 5
    frequency:    7.6872408061
  - # 6
    frequency:    8.5844993315

- q-position: [    0.2150000,    0.0000000,    0.2150000 ]
  distance:    0.1110200
  band:
  - # 1
    frequency:    2.9059264132
  - # 2
    frequency:    2.9059264132
  - # 3
    frequency:    3.9472283082
  - # 4
    frequency:    7.6606661621
  - # 5
    frequency:    7.6606661621
  - # 6
    frequency:    8.5279413574

- q-position: [    0.2100000,    0.0000000,    0.2100000 ]
  distance:    0.1129677
  band:
  - # 1
    frequency:    2.8656107891
  - # 2
    frequency:    2.8656107891
  - # 3
    frequency:    3.8828595329
  - # 4
    frequency:    7.6321033542
  - # 5
    frequency:    7.6321033542
  - # 6
    frequency:    8.4695318348

- q-position: [    0.2050000,    0.0000000,    0.2050000 ]
  distance:    0.1149154
  band:
  - # 1
    frequency:    2.8240575319
  - # 2
    frequency:    2.8240575319
  - # 3
    frequency:    3.8171914257
  - # 4
    frequency:    7.6016150199
  - # 5
    frequency:    7.6016150199
  - # 6
    frequency:    8.4093429994

- q-position: [    0.2000000,    0.0000000,    0.2000000 ]
  distance:    0.1168632
  band:
  - # 1
    frequency:    2.7812514002
  - # 2
    frequency:    2.7812514002
  - # 3
    frequency:    3.7502178772
  - # 4
    frequency:    7.5692711349
  - # 5
    frequency:    7.5692711349
  - # 6
    frequency:    8.3474549109

- q-position: [    0.1950000,    0.0000000,    0.1950000 ]
  distance:    0.1188109
  band:
  - # 1
    frequency:    2.7371772127
  - # 2
    frequency:    2.7371772127
  - # 3
    frequency:    3.6819324830
  - # 4
    frequency:    7.5351489555
  - # 5
    frequency:    7.5351489555
  - # 6
    frequency:    8.2839555231

- q-position: [    0.1900000,    0.0000000,    0.1900000 ]
  distance:    0.1207586
  band:
  - # 1
    frequency:    2.6918198684
  - # 2
    frequency:    2.6918198684
  - # 3
    frequency:    3.6123285307
  - # 4
    frequency:    7.4993329409
  - # 5
    frequency:    7.4993329409
  - # 6
    frequency:    8.2189407374

- q-position: [    0.1850000,    0.0000000,    0.1850000 ]
  distance:    0.1227063
  band:
  - # 1
    frequency:    2.6451643778
  - # 2
    frequency:    2.6451643778
  - # 3
    frequency:    3.5413989954
  - # 4
    frequency:    7.4619146548
  - # 5
    frequency:    7.4619146548
  - # 6
    frequency:    8.1525144371

- q-position: [    0.1800000,    0.0000000,    0.1800000 ]
  distance:    0.1246540
  band:
  - # 1
    frequency:    2.5971959089
  - # 2
    frequency:    2.5971959089
  - # 3
    frequency:    3.4691365472
  - # 4
    frequency:    7.4229926416
  - # 5
    frequency:    7.4229926416
  - # 6
    frequency:    8.0847884981

- q-position: [    0.1750000,    0.0000000,    0.1750000 ]
  distance:    0.1266018
  band:
  - # 1
    frequency:    2.5478998488
  - # 2
    frequency:    2.5478998488
  - # 3
    frequency:    3.3955335734
  - # 4
    frequency:    7.3826722767
  - # 5
    frequency:    7.3826722767
  - # 6
    frequency:    8.0158827733

- q-position: [    0.1700000,    0.0000000,    0.1700000 ]
  distance:    0.1285495
  band:
  - # 1
    frequency:    2.4972618828
  - # 2
    frequency:    2.4972618828
  - # 3
    frequency:    3.3205822176
  - # 4
    frequency:    7.3410655865
  - # 5
    frequency:    7.3410655865
  - # 6
    frequency:    7.9459250473

- q-position: [    0.1650000,    0.0000000,    0.1650000 ]
  distance:    0.1304972
  band:
  - # 1
    frequency:    2.4452680941
  - # 2
    frequency:    2.4452680941
  - # 3
    frequency:    3.2442744378
  - # 4
    frequency:    7.2982910369
  - # 5
    frequency:    7.2982910369
  - # 6
    frequency:    7.8750509560

- q-position: [    0.1600000,    0.0000000,    0.1600000 ]
  distance:    0.1324449
  band:
  - # 1
    frequency:    2.3919050847
  - # 2
    frequency:    2.3919050847
  - # 3
    frequency:    3.1666020882
  - # 4
    frequency:    7.2544732857
  - # 5
    frequency:    7.2544732857
  - # 6
    frequency:    7.8034038671

- q-position: [    0.1550000,    0.0000000,    0.1550000 ]
  distance:    0.1343926
  band:
  - # 1
    frequency:    2.3371601198
  - # 2
    frequency:    2.3371601198
  - # 3
    frequency:    3.0875570257
  - # 4
    frequency:    7.2097428986
  - # 5
    frequency:    7.2097428986
  - # 6
    frequency:    7.7311347175

- q-position: [    0.1500000,    0.0000000,    0.1500000 ]
  distance:    0.1363404
  band:
  - # 1
    frequency:    2.2810212976
  - # 2
    frequency:    2.2810212976
  - # 3
    frequency:    3.0071312450
  - # 4
    frequency:    7.1642360235
  - # 5
    frequency:    7.1642360235
  - # 6
    frequency:    7.6584018012

- q-position: [    0.1450000,    0.0000000,    0.1450000 ]
  distance:    0.1382881
  band:
  - # 1
    frequency:    2.2234777447
  - # 2
    frequency:    2.2234777447
  - # 3
    frequency:    2.9253170448
  - # 4
    frequency:    7.1180940236
  - # 5
    frequency:    7.1180940236
  - # 6
    frequency:    7.5853705037

- q-position: [    0.1400000,    0.0000000,    0.1400000 ]
  distance:    0.1402358
  band:
  - # 1
    frequency:    2.1645198383
  - # 2
    frequency:    2.1645198383
  - # 3
    frequency:    2.8421072266
  - # 4
    frequency:    7.0714630653
  - # 5
    frequency:    7.0714630653
  - # 6
    frequency:    7.5122129786

- q-position: [    0.1350000,    0.0000000,    0.1350000 ]
  distance:    0.1421835
  band:
  - # 1
    frequency:    2.1041394555
  - # 2
    frequency:    2.1041394555
  - # 3
    frequency:    2.7574953292
  - # 4
    frequency:    7.0244936614
  - # 5
    frequency:    7.0244936614
  - # 6
    frequency:    7.4391077603

- q-position: [    0.1300000,    0.0000000,    0.1300000 ]
  distance:    0.1441312
  band:
  - # 1
    frequency:    2.0423302485
  - # 2
    frequency:    2.0423302485
  - # 3
    frequency:    2.6714758987
  - # 4
    frequency:    6.9773401672
  - # 5
    frequency:    6.9773401672
  - # 6
    frequency:    7.3662393098

- q-position: [    0.1250000,    0.0000000,    0.1250000 ]
  distance:    0.1460789
  band:
  - # 1
    frequency:    1.9790879449
  - # 2
    frequency:    1.9790879449
  - # 3
    frequency:    2.5840447951
  - # 4
    frequency:    6.9301602309
  - # 5
    frequency:    6.9301602309
  - # 6
    frequency:    7.2937974898

- q-position: [    0.1200000,    0.0000000,    0.1200000 ]
  distance:    0.1480267
  band:
  - # 1
    frequency:    1.9144106702
  - # 2
    frequency:    1.9144106702
  - # 3
    frequency:    2.4951995346
  - # 4
    frequency:    6.8831141980
  - # 5
    frequency:    6.8831141980
  - # 6
    frequency:    7.2219769670

- q-position: [    0.1150000,    0.0000000,    0.1150000 ]
  distance:    0.1499744
  band:
  - # 1
    frequency:    1.8482992903
  - # 2
    frequency:    1.8482992903
  - # 3
    frequency:    2.4049396651
  - # 4
    frequency:    6.8363644732
  - # 5
    frequency:    6.8363644732
  - # 6
    frequency:    7.1509765392

- q-position: [    0.1100000,    0.0000000,    0.1100000 ]
  distance:    0.1519221
  band:
  - # 1
    frequency:    1.7807577685
  - # 2
    frequency:    1.7807577685
  - # 3
    frequency:    2.3132671724
  - # 4
    frequency:    6.7900748403
  - # 5
    frequency:    6.7900748403
  - # 6
    frequency:    7.0809983875

- q-position: [    0.1050000,    0.0000000,    0.1050000 ]
  distance:    0.1538698
  band:
  - # 1
    frequency:    1.7117935327
  - # 2
    frequency:    1.7117935327
  - # 3
    frequency:    2.2201869111
  - # 4
    frequency:    6.7444097460
  - # 5
    frequency:    6.7444097460
  - # 6
    frequency:    7.0122472552

- q-position: [    0.1000000,    0.0000000,    0.1000000 ]
  distance:    0.1558175
  band:
  - # 1
    frequency:    1.6414178464
  - # 2
    frequency:    1.6414178464
  - # 3
    frequency:    2.1257070551
  - # 4
    frequency:    6.6995335513
  - # 5
    frequency:    6.6995335513
  - # 6
    frequency:    6.9449295556

- q-position: [    0.0950000,    0.0000000,    0.0950000 ]
  distance:    0.1577653
  band:
  - # 1
    frequency:    1.5696461762
  - # 2
    frequency:    1.5696461762
  - # 3
    frequency:    2.0298395585
  - # 4
    frequency:    6.6556097567
  - # 5
    frequency:    6.6556097567
  - # 6
    frequency:    6.8792524146

- q-position: [    0.0900000,    0.0000000,    0.0900000 ]
  distance:    0.1597130
  band:
  - # 1
    frequency:    1.4964985473
  - # 2
    frequency:    1.4964985473
  - # 3
    frequency:    1.9326006184
  - # 4
    frequency:    6.6128002078
  - # 5
    frequency:    6.6128002078
  - # 6
    frequency:    6.8154226525

- q-position: [    0.0850000,    0.0000000,    0.0850000 ]
  distance:    0.1616607
  band:
  - # 1
    frequency:    1.4219998802
  - # 2
    frequency:    1.4219998802
  - # 3
    frequency:    1.8340111282
  - # 4
    frequency:    6.5712642890
  - # 5
    frequency:    6.5712642890
  - # 6
    frequency:    6.7536457153

- q-position: [    0.0800000,    0.0000000,    0.0800000 ]
  distance:    0.1636084
  band:
  - # 1
    frequency:    1.3461802972
  - # 2
    frequency:    1.3461802972
  - # 3
    frequency:    1.7340971098
  - # 4
    frequency:    6.5311581127
  - # 5
    frequency:    6.5311581127
  - # 6
    frequency:    6.6941245638

- q-position: [    0.0750000,    0.0000000,    0.0750000 ]
  distance:    0.1655561
  band:
  - # 1
    frequency:    1.2690753914
  - # 2
    frequency:    1.2690753914
  - # 3
    frequency:    1.6328901122
  - # 4
    frequency:    6.4926337129
  - # 5
    frequency:    6.4926337129
  - # 6
    frequency:    6.6370585321

- q-position: [    0.0700000,    0.0000000,    0.0700000 ]
  distance:    0.1675039
  band:
  - # 1
    frequency:    1.1907264492
  - # 2
    frequency:    1.1907264492
  - # 3
    frequency:    1.5304275635
  - # 4
    frequency:    6.4558382513
  - # 5
    frequency:    6.4558382513
  - # 6
    frequency:    6.5826421676

- q-position: [    0.0650000,    0.0000000,    0.0650000 ]
  distance:    0.1694516
  band:
  - # 1
    frequency:    1.1111806170
  - # 2
    frequency:    1.1111806170
  - # 3
    frequency:    1.4267530634
  - # 4
    frequency:    6.4209132438
  - # 5
    frequency:    6.4209132438
  - # 6
    frequency:    6.5310640653

- q-position: [    0.0600000,    0.0000000,    0.0600000 ]
  distance:    0.1713993
  band:
  - # 1
    frequency:    1.0304910041
  - # 2
    frequency:    1.0304910041
  - # 3
    frequency:    1.3219166053
  - # 4
    frequency:    6.3879938161
  - # 5
    frequency:    6.3879938161
  - # 6
    frequency:    6.4825057106
