16   
2    

1    
  0.0000000000000000   0.0353553390593274   0.0353553390593274
   0.0000000000   -0.2542396000   -0.2542396000
   0.0000000000    0.1219125600    0.1219125600
   0.0779722600   -0.0126606400    0.0438058000
  -0.0779722600    0.0438058000   -0.0126606400
   0.0779722600    0.0438058000   -0.0126606400
  -0.0779722600   -0.0126606400    0.0438058000
   0.0000000000   -0.0341374200   -0.0341374200
   0.0000000000    0.0292035500    0.0292035500
  -0.0007912500   -0.0073191000   -0.0073191000
  -0.0000492700    0.0155019100    0.0155019100
   0.0000000000    0.0207469100    0.0154799100
   0.0000000000    0.0152895800    0.0070885900
   0.0000000000    0.0154799100    0.0207469100
   0.0000000000    0.0070885900    0.0152895800
   0.0000492700    0.0155019100    0.0155019100
   0.0007912500   -0.0073191000   -0.0073191000

9    
  0.0000000000000000   0.0353553390593274   0.0353553390593274
   0.0005200200   -0.0073092300   -0.0073092300
  -0.0002721100    0.0154992800    0.0154992800
   0.0000000000    0.0076011800    0.0153971500
   0.0000000000    0.0154253400    0.0200661800
   0.0000000000    0.0153971500    0.0076011800
   0.0000000000    0.0200661800    0.0154253400
   0.0002721100    0.0154992800    0.0154992800
  -0.0005200200   -0.0073092300   -0.0073092300
   0.0000000000   -0.1758666800   -0.1758666800
  -0.0000000000    0.0511340000    0.0511340000
   0.0361377600   -0.0060595900    0.0149574900
  -0.0361377600    0.0149574900   -0.0060595900
   0.0361377600    0.0149574900   -0.0060595900
  -0.0361377600   -0.0060595900    0.0149574900
   0.0000000000   -0.0211862000   -0.0211862000
  -0.0000000000    0.0532531500    0.0532531500
