nqpoint: 202    
npath: 2      
segment_nqpoint:
- 101
- 101
reciprocal_lattice:
- [  -0.19477193,   0.19477193,   0.19477193 ] # a*
- [   0.19477193,  -0.19477193,   0.19477193 ] # b*
- [   0.19477193,   0.19477193,  -0.19477193 ] # c*
natom: 2      
lattice:
- [     0.0000000000000000,     2.5671049901180245,     2.5671049901180245 ] # a
- [     2.5671049901180245,     0.0000000000000000,     2.5671049901180245 ] # b
- [     2.5671049901180245,     2.5671049901180245,     0.0000000000000000 ] # c
atoms:
- symbol: Sr # 1
  position: [  0.0000000000000000,  0.0000000000000000,  0.0000000000000000 ]
  mass: 87.620000
- symbol: O  # 2
  position: [  0.5000000000000000,  0.5000000000000000,  0.5000000000000000 ]
  mass: 15.999400
supercell_matrix:
- [    4,    0,    0 ]
- [    0,    4,    0 ]
- [    0,    0,    4 ]

phonon:
- q-position: [    0.5000000,    0.0000000,    0.5000000 ]
  distance:    0.0000000
  label: 'X'
  band:
  - # 1
    frequency:    3.7308181125
  - # 2
    frequency:    3.7308181125
  - # 3
    frequency:    5.6824798900
  - # 4
    frequency:    7.0796237794
  - # 5
    frequency:    7.0796237794
  - # 6
    frequency:    9.2691556170

- q-position: [    0.4950000,    0.0000000,    0.4950000 ]
  distance:    0.0019477
  band:
  - # 1
    frequency:    3.7307169270
  - # 2
    frequency:    3.7307169270
  - # 3
    frequency:    5.6819985541
  - # 4
    frequency:    7.0806271038
  - # 5
    frequency:    7.0806271038
  - # 6
    frequency:    9.2694554346

- q-position: [    0.4900000,    0.0000000,    0.4900000 ]
  distance:    0.0038954
  band:
  - # 1
    frequency:    3.7304122980
  - # 2
    frequency:    3.7304122980
  - # 3
    frequency:    5.6805542653
  - # 4
    frequency:    7.0836317367
  - # 5
    frequency:    7.0836317367
  - # 6
    frequency:    9.2703517087

- q-position: [    0.4850000,    0.0000000,    0.4850000 ]
  distance:    0.0058432
  band:
  - # 1
    frequency:    3.7299010205
  - # 2
    frequency:    3.7299010205
  - # 3
    frequency:    5.6781461823
  - # 4
    frequency:    7.0886216933
  - # 5
    frequency:    7.0886216933
  - # 6
    frequency:    9.2718349200

- q-position: [    0.4800000,    0.0000000,    0.4800000 ]
  distance:    0.0077909
  band:
  - # 1
    frequency:    3.7291777937
  - # 2
    frequency:    3.7291777937
  - # 3
    frequency:    5.6747729085
  - # 4
    frequency:    7.0955704547
  - # 5
    frequency:    7.0955704547
  - # 6
    frequency:    9.2738892600

- q-position: [    0.4750000,    0.0000000,    0.4750000 ]
  distance:    0.0097386
  band:
  - # 1
    frequency:    3.7282352816
  - # 2
    frequency:    3.7282352816
  - # 3
    frequency:    5.6704325004
  - # 4
    frequency:    7.1044411493
  - # 5
    frequency:    7.1044411493
  - # 6
    frequency:    9.2764927154

- q-position: [    0.4700000,    0.0000000,    0.4700000 ]
  distance:    0.0116863
  band:
  - # 1
    frequency:    3.7270641942
  - # 2
    frequency:    3.7270641942
  - # 3
    frequency:    5.6651224789
  - # 4
    frequency:    7.1151868044
  - # 5
    frequency:    7.1151868044
  - # 6
    frequency:    9.2796171858

- q-position: [    0.4650000,    0.0000000,    0.4650000 ]
  distance:    0.0136340
  band:
  - # 1
    frequency:    3.7256533882
  - # 2
    frequency:    3.7256533882
  - # 3
    frequency:    5.6588398442
  - # 4
    frequency:    7.1277506636
  - # 5
    frequency:    7.1277506636
  - # 6
    frequency:    9.2832286325

- q-position: [    0.4600000,    0.0000000,    0.4600000 ]
  distance:    0.0155818
  band:
  - # 1
    frequency:    3.7239899836
  - # 2
    frequency:    3.7239899836
  - # 3
    frequency:    5.6515810925
  - # 4
    frequency:    7.1420665676
  - # 5
    frequency:    7.1420665676
  - # 6
    frequency:    9.2872872588

- q-position: [    0.4550000,    0.0000000,    0.4550000 ]
  distance:    0.0175295
  band:
  - # 1
    frequency:    3.7220594920
  - # 2
    frequency:    3.7220594920
  - # 3
    frequency:    5.6433422363
  - # 4
    frequency:    7.1580593934
  - # 5
    frequency:    7.1580593934
  - # 6
    frequency:    9.2917477182

- q-position: [    0.4500000,    0.0000000,    0.4500000 ]
  distance:    0.0194772
  band:
  - # 1
    frequency:    3.7198459555
  - # 2
    frequency:    3.7198459555
  - # 3
    frequency:    5.6341188262
  - # 4
    frequency:    7.1756455455
  - # 5
    frequency:    7.1756455455
  - # 6
    frequency:    9.2965593510

- q-position: [    0.4450000,    0.0000000,    0.4450000 ]
  distance:    0.0214249
  band:
  - # 1
    frequency:    3.7173320896
  - # 2
    frequency:    3.7173320896
  - # 3
    frequency:    5.6239059748
  - # 4
    frequency:    7.1947334955
  - # 5
    frequency:    7.1947334955
  - # 6
    frequency:    9.3016664451

- q-position: [    0.4400000,    0.0000000,    0.4400000 ]
  distance:    0.0233726
  band:
  - # 1
    frequency:    3.7144994294
  - # 2
    frequency:    3.7144994294
  - # 3
    frequency:    5.6126983827
  - # 4
    frequency:    7.2152243624
  - # 5
    frequency:    7.2152243624
  - # 6
    frequency:    9.3070085211

- q-position: [    0.4350000,    0.0000000,    0.4350000 ]
  distance:    0.0253204
  band:
  - # 1
    frequency:    3.7113284753
  - # 2
    frequency:    3.7113284753
  - # 3
    frequency:    5.6004903655
  - # 4
    frequency:    7.2370125264
  - # 5
    frequency:    7.2370125264
  - # 6
    frequency:    9.3125206374

- q-position: [    0.4300000,    0.0000000,    0.4300000 ]
  distance:    0.0272681
  band:
  - # 1
    frequency:    3.7077988341
  - # 2
    frequency:    3.7077988341
  - # 3
    frequency:    5.5872758817
  - # 4
    frequency:    7.2599862723
  - # 5
    frequency:    7.2599862723
  - # 6
    frequency:    9.3181337149

- q-position: [    0.4250000,    0.0000000,    0.4250000 ]
  distance:    0.0292158
  band:
  - # 1
    frequency:    3.7038893560
  - # 2
    frequency:    3.7038893560
  - # 3
    frequency:    5.5730485624
  - # 4
    frequency:    7.2840284517
  - # 5
    frequency:    7.2840284517
  - # 6
    frequency:    9.3237748776

- q-position: [    0.4200000,    0.0000000,    0.4200000 ]
  distance:    0.0311635
  band:
  - # 1
    frequency:    3.6995782627
  - # 2
    frequency:    3.6995782627
  - # 3
    frequency:    5.5578017402
  - # 4
    frequency:    7.3090171609
  - # 5
    frequency:    7.3090171609
  - # 6
    frequency:    9.3293678070

- q-position: [    0.4150000,    0.0000000,    0.4150000 ]
  distance:    0.0331112
  band:
  - # 1
    frequency:    3.6948432678
  - # 2
    frequency:    3.6948432678
  - # 3
    frequency:    5.5415284797
  - # 4
    frequency:    7.3348264252
  - # 5
    frequency:    7.3348264252
  - # 6
    frequency:    9.3348331082

- q-position: [    0.4100000,    0.0000000,    0.4100000 ]
  distance:    0.0350589
  band:
  - # 1
    frequency:    3.6896616871
  - # 2
    frequency:    3.6896616871
  - # 3
    frequency:    5.5242216072
  - # 4
    frequency:    7.3613268853
  - # 5
    frequency:    7.3613268853
  - # 6
    frequency:    9.3400886856

- q-position: [    0.4050000,    0.0000000,    0.4050000 ]
  distance:    0.0370067
  band:
  - # 1
    frequency:    3.6840105391
  - # 2
    frequency:    3.6840105391
  - # 3
    frequency:    5.5058737404
  - # 4
    frequency:    7.3883864785
  - # 5
    frequency:    7.3883864785
  - # 6
    frequency:    9.3450501243

- q-position: [    0.4000000,    0.0000000,    0.4000000 ]
  distance:    0.0389544
  band:
  - # 1
    frequency:    3.6778666348
  - # 2
    frequency:    3.6778666348
  - # 3
    frequency:    5.4864773187
  - # 4
    frequency:    7.4158711100
  - # 5
    frequency:    7.4158711100
  - # 6
    frequency:    9.3496310775

- q-position: [    0.3950000,    0.0000000,    0.3950000 ]
  distance:    0.0409021
  band:
  - # 1
    frequency:    3.6712066584
  - # 2
    frequency:    3.6712066584
  - # 3
    frequency:    5.4660246318
  - # 4
    frequency:    7.4436453099
  - # 5
    frequency:    7.4436453099
  - # 6
    frequency:    9.3537436554

- q-position: [    0.3900000,    0.0000000,    0.3900000 ]
  distance:    0.0428498
  band:
  - # 1
    frequency:    3.6640072380
  - # 2
    frequency:    3.6640072380
  - # 3
    frequency:    5.4445078483
  - # 4
    frequency:    7.4715728711
  - # 5
    frequency:    7.4715728711
  - # 6
    frequency:    9.3572988150

- q-position: [    0.3850000,    0.0000000,    0.3850000 ]
  distance:    0.0447975
  band:
  - # 1
    frequency:    3.6562450075
  - # 2
    frequency:    3.6562450075
  - # 3
    frequency:    5.4219190438
  - # 4
    frequency:    7.4995174646
  - # 5
    frequency:    7.4995174646
  - # 6
    frequency:    9.3602067487

- q-position: [    0.3800000,    0.0000000,    0.3800000 ]
  distance:    0.0467453
  band:
  - # 1
    frequency:    3.6478966603
  - # 2
    frequency:    3.6478966603
  - # 3
    frequency:    5.3982502280
  - # 4
    frequency:    7.5273432305
  - # 5
    frequency:    7.5273432305
  - # 6
    frequency:    9.3623772697

- q-position: [    0.3750000,    0.0000000,    0.3750000 ]
  distance:    0.0486930
  band:
  - # 1
    frequency:    3.6389389958
  - # 2
    frequency:    3.6389389958
  - # 3
    frequency:    5.3734933703
  - # 4
    frequency:    7.5549153406
  - # 5
    frequency:    7.5549153406
  - # 6
    frequency:    9.3637201929

- q-position: [    0.3700000,    0.0000000,    0.3700000 ]
  distance:    0.0506407
  band:
  - # 1
    frequency:    3.6293489595
  - # 2
    frequency:    3.6293489595
  - # 3
    frequency:    5.3476404254
  - # 4
    frequency:    7.5821005327
  - # 5
    frequency:    7.5821005327
  - # 6
    frequency:    9.3641457101

- q-position: [    0.3650000,    0.0000000,    0.3650000 ]
  distance:    0.0525884
  band:
  - # 1
    frequency:    3.6191036771
  - # 2
    frequency:    3.6191036771
  - # 3
    frequency:    5.3206833570
  - # 4
    frequency:    7.6087676145
  - # 5
    frequency:    7.6087676145
  - # 6
    frequency:    9.3635647581

- q-position: [    0.3600000,    0.0000000,    0.3600000 ]
  distance:    0.0545361
  band:
  - # 1
    frequency:    3.6081804838
  - # 2
    frequency:    3.6081804838
  - # 3
    frequency:    5.2926141604
  - # 4
    frequency:    7.6347879377
  - # 5
    frequency:    7.6347879377
  - # 6
    frequency:    9.3618893784

- q-position: [    0.3550000,    0.0000000,    0.3550000 ]
  distance:    0.0564839
  band:
  - # 1
    frequency:    3.5965569489
  - # 2
    frequency:    3.5965569489
  - # 3
    frequency:    5.2634248842
  - # 4
    frequency:    7.6600358402
  - # 5
    frequency:    7.6600358402
  - # 6
    frequency:    9.3590330687

- q-position: [    0.3500000,    0.0000000,    0.3500000 ]
  distance:    0.0584316
  band:
  - # 1
    frequency:    3.5842108975
  - # 2
    frequency:    3.5842108975
  - # 3
    frequency:    5.2331076503
  - # 4
    frequency:    7.6843890596
  - # 5
    frequency:    7.6843890596
  - # 6
    frequency:    9.3549111242

- q-position: [    0.3450000,    0.0000000,    0.3450000 ]
  distance:    0.0603793
  band:
  - # 1
    frequency:    3.5711204278
  - # 2
    frequency:    3.5711204278
  - # 3
    frequency:    5.2016546725
  - # 4
    frequency:    7.7077291159
  - # 5
    frequency:    7.7077291159
  - # 6
    frequency:    9.3494409689

- q-position: [    0.3400000,    0.0000000,    0.3400000 ]
  distance:    0.0623270
  band:
  - # 1
    frequency:    3.5572639267
  - # 2
    frequency:    3.5572639267
  - # 3
    frequency:    5.1690582736
  - # 4
    frequency:    7.7299416662
  - # 5
    frequency:    7.7299416662
  - # 6
    frequency:    9.3425424769

- q-position: [    0.3350000,    0.0000000,    0.3350000 ]
  distance:    0.0642747
  band:
  - # 1
    frequency:    3.5426200821
  - # 2
    frequency:    3.5426200821
  - # 3
    frequency:    5.1353109005
  - # 4
    frequency:    7.7509168317
  - # 5
    frequency:    7.7509168317
  - # 6
    frequency:    9.3341382823

- q-position: [    0.3300000,    0.0000000,    0.3300000 ]
  distance:    0.0662225
  band:
  - # 1
    frequency:    3.5271678935
  - # 2
    frequency:    3.5271678935
  - # 3
    frequency:    5.1004051387
  - # 4
    frequency:    7.7705494987
  - # 5
    frequency:    7.7705494987
  - # 6
    frequency:    9.3241540785

- q-position: [    0.3250000,    0.0000000,    0.3250000 ]
  distance:    0.0681702
  band:
  - # 1
    frequency:    3.5108866801
  - # 2
    frequency:    3.5108866801
  - # 3
    frequency:    5.0643337229
  - # 4
    frequency:    7.7887395948
  - # 5
    frequency:    7.7887395948
  - # 6
    frequency:    9.3125189072

- q-position: [    0.3200000,    0.0000000,    0.3200000 ]
  distance:    0.0701179
  band:
  - # 1
    frequency:    3.4937560876
  - # 2
    frequency:    3.4937560876
  - # 3
    frequency:    5.0270895480
  - # 4
    frequency:    7.8053923419
  - # 5
    frequency:    7.8053923419
  - # 6
    frequency:    9.2991654353

- q-position: [    0.3150000,    0.0000000,    0.3150000 ]
  distance:    0.0720656
  band:
  - # 1
    frequency:    3.4757560922
  - # 2
    frequency:    3.4757560922
  - # 3
    frequency:    4.9886656761
  - # 4
    frequency:    7.8204184879
  - # 5
    frequency:    7.8204184879
  - # 6
    frequency:    9.2840302227

- q-position: [    0.3100000,    0.0000000,    0.3100000 ]
  distance:    0.0740133
  band:
  - # 1
    frequency:    3.4568670035
  - # 2
    frequency:    3.4568670035
  - # 3
    frequency:    4.9490553425
  - # 4
    frequency:    7.8337345177
  - # 5
    frequency:    7.8337345177
  - # 6
    frequency:    9.2670539787

- q-position: [    0.3050000,    0.0000000,    0.3050000 ]
  distance:    0.0759611
  band:
  - # 1
    frequency:    3.4370694654
  - # 2
    frequency:    3.4370694654
  - # 3
    frequency:    4.9082519588
  - # 4
    frequency:    7.8452628464
  - # 5
    frequency:    7.8452628464
  - # 6
    frequency:    9.2481818087

- q-position: [    0.3000000,    0.0000000,    0.3000000 ]
  distance:    0.0779088
  band:
  - # 1
    frequency:    3.4163444547
  - # 2
    frequency:    3.4163444547
  - # 3
    frequency:    4.8662491138
  - # 4
    frequency:    7.8549319948
  - # 5
    frequency:    7.8549319948
  - # 6
    frequency:    9.2273634513

- q-position: [    0.2950000,    0.0000000,    0.2950000 ]
  distance:    0.0798565
  band:
  - # 1
    frequency:    3.3946732784
  - # 2
    frequency:    3.3946732784
  - # 3
    frequency:    4.8230405718
  - # 4
    frequency:    7.8626767496
  - # 5
    frequency:    7.8626767496
  - # 6
    frequency:    9.2045535059

- q-position: [    0.2900000,    0.0000000,    0.2900000 ]
  distance:    0.0818042
  band:
  - # 1
    frequency:    3.3720375683
  - # 2
    frequency:    3.3720375683
  - # 3
    frequency:    4.7786202684
  - # 4
    frequency:    7.8684383092
  - # 5
    frequency:    7.8684383092
  - # 6
    frequency:    9.1797116515

- q-position: [    0.2850000,    0.0000000,    0.2850000 ]
  distance:    0.0837519
  band:
  - # 1
    frequency:    3.3484192744
  - # 2
    frequency:    3.3484192744
  - # 3
    frequency:    4.7329823036
  - # 4
    frequency:    7.8721644163
  - # 5
    frequency:    7.8721644163
  - # 6
    frequency:    9.1528028574

- q-position: [    0.2800000,    0.0000000,    0.2800000 ]
  distance:    0.0856997
  band:
  - # 1
    frequency:    3.3238006555
  - # 2
    frequency:    3.3238006555
  - # 3
    frequency:    4.6861209316
  - # 4
    frequency:    7.8738094780
  - # 5
    frequency:    7.8738094780
  - # 6
    frequency:    9.1237975850

- q-position: [    0.2750000,    0.0000000,    0.2750000 ]
  distance:    0.0876474
  band:
  - # 1
    frequency:    3.2981642683
  - # 2
    frequency:    3.2981642683
  - # 3
    frequency:    4.6380305487
  - # 4
    frequency:    7.8733346759
  - # 5
    frequency:    7.8733346759
  - # 6
    frequency:    9.0926719834

- q-position: [    0.2700000,    0.0000000,    0.2700000 ]
  distance:    0.0895951
  band:
  - # 1
    frequency:    3.2714929543
  - # 2
    frequency:    3.2714929543
  - # 3
    frequency:    4.5887056773
  - # 4
    frequency:    7.8707080648
  - # 5
    frequency:    7.8707080648
  - # 6
    frequency:    9.0594080761

- q-position: [    0.2650000,    0.0000000,    0.2650000 ]
  distance:    0.0915428
  band:
  - # 1
    frequency:    3.2437698249
  - # 2
    frequency:    3.2437698249
  - # 3
    frequency:    4.5381409479
  - # 4
    frequency:    7.8659046627
  - # 5
    frequency:    7.8659046627
  - # 6
    frequency:    9.0239939428

- q-position: [    0.2600000,    0.0000000,    0.2600000 ]
  distance:    0.0934905
  band:
  - # 1
    frequency:    3.2149782444
  - # 2
    frequency:    3.2149782444
  - # 3
    frequency:    4.4863310775
  - # 4
    frequency:    7.8589065314
  - # 5
    frequency:    7.8589065314
  - # 6
    frequency:    8.9864238929

- q-position: [    0.2550000,    0.0000000,    0.2550000 ]
  distance:    0.0954382
  band:
  - # 1
    frequency:    3.1851018122
  - # 2
    frequency:    3.1851018122
  - # 3
    frequency:    4.4332708458
  - # 4
    frequency:    7.8497028487
  - # 5
    frequency:    7.8497028487
  - # 6
    frequency:    8.9466986342

- q-position: [    0.2500000,    0.0000000,    0.2500000 ]
  distance:    0.0973860
  band:
  - # 1
    frequency:    3.1541243429
  - # 2
    frequency:    3.1541243429
  - # 3
    frequency:    4.3789550685
  - # 4
    frequency:    7.8382899722
  - # 5
    frequency:    7.8382899722
  - # 6
    frequency:    8.9048254345

- q-position: [    0.2450000,    0.0000000,    0.2450000 ]
  distance:    0.0993337
  band:
  - # 1
    frequency:    3.1220298456
  - # 2
    frequency:    3.1220298456
  - # 3
    frequency:    4.3233785684
  - # 4
    frequency:    7.8246714952
  - # 5
    frequency:    7.8246714952
  - # 6
    frequency:    8.8608182776

- q-position: [    0.2400000,    0.0000000,    0.2400000 ]
  distance:    0.1012814
  band:
  - # 1
    frequency:    3.0888025032
  - # 2
    frequency:    3.0888025032
  - # 3
    frequency:    4.2665361439
  - # 4
    frequency:    7.8088582943
  - # 5
    frequency:    7.8088582943
  - # 6
    frequency:    8.8146980133

- q-position: [    0.2350000,    0.0000000,    0.2350000 ]
  distance:    0.1032291
  band:
  - # 1
    frequency:    3.0544266509
  - # 2
    frequency:    3.0544266509
  - # 3
    frequency:    4.2084225362
  - # 4
    frequency:    7.7908685681
  - # 5
    frequency:    7.7908685681
  - # 6
    frequency:    8.7664925011

- q-position: [    0.2300000,    0.0000000,    0.2300000 ]
  distance:    0.1051768
  band:
  - # 1
    frequency:    3.0188867557
  - # 2
    frequency:    3.0188867557
  - # 3
    frequency:    4.1490323952
  - # 4
    frequency:    7.7707278674
  - # 5
    frequency:    7.7707278674
  - # 6
    frequency:    8.7162367471

- q-position: [    0.2250000,    0.0000000,    0.2250000 ]
  distance:    0.1071246
  band:
  - # 1
    frequency:    2.9821673974
  - # 2
    frequency:    2.9821673974
  - # 3
    frequency:    4.0883602445
  - # 4
    frequency:    7.7484691159
  - # 5
    frequency:    7.7484691159
  - # 6
    frequency:    8.6639730341

- q-position: [    0.2200000,    0.0000000,    0.2200000 ]
  distance:    0.1090723
  band:
  - # 1
    frequency:    2.9442532513
  - # 2
    frequency:    2.9442532513
  - # 3
    frequency:    4.0264004463
  - # 4
    frequency:    7.7241326203
  - # 5
    frequency:    7.7241326203
  - # 6
    frequency:    8.6097510435

- q-position: [    0.2150000,    0.0000000,    0.2150000 ]
  distance:    0.1110200
  band:
  - # 1
    frequency:    2.9051290745
  - # 2
    frequency:    2.9051290745
  - # 3
    frequency:    3.9631471675
  - # 4
    frequency:    7.6977660693
  - # 5
    frequency:    7.6977660693
  - # 6
    frequency:    8.5536279691

- q-position: [    0.2100000,    0.0000000,    0.2100000 ]
  distance:    0.1129677
  band:
  - # 1
    frequency:    2.8647796964
  - # 2
    frequency:    2.8647796964
  - # 3
    frequency:    3.8985943478
  - # 4
    frequency:    7.6694245195
  - # 5
    frequency:    7.6694245195
  - # 6
    frequency:    8.4956686200

- q-position: [    0.2050000,    0.0000000,    0.2050000 ]
  distance:    0.1149154
  band:
  - # 1
    frequency:    2.8231900146
  - # 2
    frequency:    2.8231900146
  - # 3
    frequency:    3.8327356708
  - # 4
    frequency:    7.6391703684
  - # 5
    frequency:    7.6391703684
  - # 6
    frequency:    8.4359455129

- q-position: [    0.2000000,    0.0000000,    0.2000000 ]
  distance:    0.1168632
  band:
  - # 1
    frequency:    2.7803449980
  - # 2
    frequency:    2.7803449980
  - # 3
    frequency:    3.7655645395
  - # 4
    frequency:    7.6070733104
  - # 5
    frequency:    7.6070733104
  - # 6
    frequency:    8.3745389509

- q-position: [    0.1950000,    0.0000000,    0.1950000 ]
  distance:    0.1188109
  band:
  - # 1
    frequency:    2.7362296983
  - # 2
    frequency:    2.7362296983
  - # 3
    frequency:    3.6970740586
  - # 4
    frequency:    7.5732102765
  - # 5
    frequency:    7.5732102765
  - # 6
    frequency:    8.3115370869

- q-position: [    0.1900000,    0.0000000,    0.1900000 ]
  distance:    0.1207586
  band:
  - # 1
    frequency:    2.6908292713
  - # 2
    frequency:    2.6908292713
  - # 3
    frequency:    3.6272570243
  - # 4
    frequency:    7.5376653534
  - # 5
    frequency:    7.5376653534
  - # 6
    frequency:    8.2470359694

- q-position: [    0.1850000,    0.0000000,    0.1850000 ]
  distance:    0.1227063
  band:
  - # 1
    frequency:    2.6441290109
  - # 2
    frequency:    2.6441290109
  - # 3
    frequency:    3.5561059244
  - # 4
    frequency:    7.5005296816
  - # 5
    frequency:    7.5005296816
  - # 6
    frequency:    8.1811395677

- q-position: [    0.1800000,    0.0000000,    0.1800000 ]
  distance:    0.1246540
  band:
  - # 1
    frequency:    2.5961143963
  - # 2
    frequency:    2.5961143963
  - # 3
    frequency:    3.4836129512
  - # 4
    frequency:    7.4619013290
  - # 5
    frequency:    7.4619013290
  - # 6
    frequency:    8.1139597738

- q-position: [    0.1750000,    0.0000000,    0.1750000 ]
  distance:    0.1266018
  band:
  - # 1
    frequency:    2.5467711548
  - # 2
    frequency:    2.5467711548
  - # 3
    frequency:    3.4097700284
  - # 4
    frequency:    7.4218851379
  - # 5
    frequency:    7.4218851379
  - # 6
    frequency:    8.0456163765

- q-position: [    0.1700000,    0.0000000,    0.1700000 ]
  distance:    0.1285495
  band:
  - # 1
    frequency:    2.4960853427
  - # 2
    frequency:    2.4960853427
  - # 3
    frequency:    3.3345688562
  - # 4
    frequency:    7.3805925421
  - # 5
    frequency:    7.3805925421
  - # 6
    frequency:    7.9762370051

- q-position: [    0.1650000,    0.0000000,    0.1650000 ]
  distance:    0.1304972
  band:
  - # 1
    frequency:    2.4440434454
  - # 2
    frequency:    2.4440434454
  - # 3
    frequency:    3.2580009763
  - # 4
    frequency:    7.3381413528
  - # 5
    frequency:    7.3381413528
  - # 6
    frequency:    7.9059570377

- q-position: [    0.1600000,    0.0000000,    0.1600000 ]
  distance:    0.1324449
  band:
  - # 1
    frequency:    2.3906324988
  - # 2
    frequency:    2.3906324988
  - # 3
    frequency:    3.1800578597
  - # 4
    frequency:    7.2946555092
  - # 5
    frequency:    7.2946555092
  - # 6
    frequency:    7.8349194697

- q-position: [    0.1550000,    0.0000000,    0.1550000 ]
  distance:    0.1343926
  band:
  - # 1
    frequency:    2.3358402335
  - # 2
    frequency:    2.3358402335
  - # 3
    frequency:    3.1007310208
  - # 4
    frequency:    7.2502647922
  - # 5
    frequency:    7.2502647922
  - # 6
    frequency:    7.7632747387

- q-position: [    0.1500000,    0.0000000,    0.1500000 ]
  distance:    0.1363404
  band:
  - # 1
    frequency:    2.2796552439
  - # 2
    frequency:    2.2796552439
  - # 3
    frequency:    3.0200121593
  - # 4
    frequency:    7.2051044982
  - # 5
    frequency:    7.2051044982
  - # 6
    frequency:    7.6911804998

- q-position: [    0.1450000,    0.0000000,    0.1450000 ]
  distance:    0.1382881
  band:
  - # 1
    frequency:    2.2220671820
  - # 2
    frequency:    2.2220671820
  - # 3
    frequency:    2.9378933338
  - # 4
    frequency:    7.1593150710
  - # 5
    frequency:    7.1593150710
  - # 6
    frequency:    7.6188013480

- q-position: [    0.1400000,    0.0000000,    0.1400000 ]
  distance:    0.1402358
  band:
  - # 1
    frequency:    2.1630669773
  - # 2
    frequency:    2.1630669773
  - # 3
    frequency:    2.8543671679
  - # 4
    frequency:    7.1130416912
  - # 5
    frequency:    7.1130416912
  - # 6
    frequency:    7.5463084816

- q-position: [    0.1350000,    0.0000000,    0.1350000 ]
  distance:    0.1421835
  band:
  - # 1
    frequency:    2.1026470828
  - # 2
    frequency:    2.1026470828
  - # 3
    frequency:    2.7694270908
  - # 4
    frequency:    7.0664338195
  - # 5
    frequency:    7.0664338195
  - # 6
    frequency:    7.4738793039

- q-position: [    0.1300000,    0.0000000,    0.1300000 ]
  distance:    0.1441312
  band:
  - # 1
    frequency:    2.0408017456
  - # 2
    frequency:    2.0408017456
  - # 3
    frequency:    2.6830676135
  - # 4
    frequency:    7.0196446960
  - # 5
    frequency:    7.0196446960
  - # 6
    frequency:    7.4016969586

- q-position: [    0.1250000,    0.0000000,    0.1250000 ]
  distance:    0.1460789
  band:
  - # 1
    frequency:    1.9775273023
  - # 2
    frequency:    1.9775273023
  - # 3
    frequency:    2.5952846410
  - # 4
    frequency:    6.9728307934
  - # 5
    frequency:    6.9728307934
  - # 6
    frequency:    7.3299497959

- q-position: [    0.1200000,    0.0000000,    0.1200000 ]
  distance:    0.1480267
  band:
  - # 1
    frequency:    1.9128224950
  - # 2
    frequency:    1.9128224950
  - # 3
    frequency:    2.5060758176
  - # 4
    frequency:    6.9261512268
  - # 5
    frequency:    6.9261512268
  - # 6
    frequency:    7.2588307672

- q-position: [    0.1150000,    0.0000000,    0.1150000 ]
  distance:    0.1499744
  band:
  - # 1
    frequency:    1.8466888064
  - # 2
    frequency:    1.8466888064
  - # 3
    frequency:    2.4154409054
  - # 4
    frequency:    6.8797671200
  - # 5
    frequency:    6.8797671200
  - # 6
    frequency:    7.1885367477

- q-position: [    0.1100000,    0.0000000,    0.1100000 ]
  distance:    0.1519221
  band:
  - # 1
    frequency:    1.7791308085
  - # 2
    frequency:    1.7791308085
  - # 3
    frequency:    2.3233821907
  - # 4
    frequency:    6.8338409332
  - # 5
    frequency:    6.8338409332
  - # 6
    frequency:    7.1192677869

- q-position: [    0.1050000,    0.0000000,    0.1050000 ]
  distance:    0.1538698
  band:
  - # 1
    frequency:    1.7101565206
  - # 2
    frequency:    1.7101565206
  - # 3
    frequency:    2.2299049141
  - # 4
    frequency:    6.7885357542
  - # 5
    frequency:    6.7885357542
  - # 6
    frequency:    7.0512262887

- q-position: [    0.1000000,    0.0000000,    0.1000000 ]
  distance:    0.1558175
  band:
  - # 1
    frequency:    1.6397777704
  - # 2
    frequency:    1.6397777704
  - # 3
    frequency:    2.1350177173
  - # 4
    frequency:    6.7440145588
  - # 5
    frequency:    6.7440145588
  - # 6
    frequency:    6.9846161247

- q-position: [    0.0950000,    0.0000000,    0.0950000 ]
  distance:    0.1577653
  band:
  - # 1
    frequency:    1.5680105506
  - # 2
    frequency:    1.5680105506
  - # 3
    frequency:    2.0387330984
  - # 4
    frequency:    6.7004394456
  - # 5
    frequency:    6.7004394456
  - # 6
    frequency:    6.9196416850

- q-position: [    0.0900000,    0.0000000,    0.0900000 ]
  distance:    0.1597130
  band:
  - # 1
    frequency:    1.4948753642
  - # 2
    frequency:    1.4948753642
  - # 3
    frequency:    1.9410678666
  - # 4
    frequency:    6.6579708519
  - # 5
    frequency:    6.6579708519
  - # 6
    frequency:    6.8565068747

- q-position: [    0.0850000,    0.0000000,    0.0850000 ]
  distance:    0.1616607
  band:
  - # 1
    frequency:    1.4203975498
  - # 2
    frequency:    1.4203975498
  - # 3
    frequency:    1.8420435856
  - # 4
    frequency:    6.6167667582
  - # 5
    frequency:    6.6167667582
  - # 6
    frequency:    6.7954140623

- q-position: [    0.0800000,    0.0000000,    0.0800000 ]
  distance:    0.1636084
  band:
  - # 1
    frequency:    1.3446075777
  - # 2
    frequency:    1.3446075777
  - # 3
    frequency:    1.7416869937
  - # 4
    frequency:    6.5769818883
  - # 5
    frequency:    6.5769818883
  - # 6
    frequency:    6.7365629915

- q-position: [    0.0750000,    0.0000000,    0.0750000 ]
  distance:    0.1655561
  band:
  - # 1
    frequency:    1.2675413087
  - # 2
    frequency:    1.2675413087
  - # 3
    frequency:    1.6400303889
  - # 4
    frequency:    6.5387669144
  - # 5
    frequency:    6.5387669144
  - # 6
    frequency:    6.6801496660

- q-position: [    0.0700000,    0.0000000,    0.0700000 ]
  distance:    0.1675039
  band:
  - # 1
    frequency:    1.1892402076
  - # 2
    frequency:    1.1892402076
  - # 3
    frequency:    1.5371119659
  - # 4
    frequency:    6.5022676732
  - # 5
    frequency:    6.5022676732
  - # 6
    frequency:    6.6263652206

- q-position: [    0.0650000,    0.0000000,    0.0650000 ]
  distance:    0.1694516
  band:
  - # 1
    frequency:    1.1097515009
  - # 2
    frequency:    1.1097515009
  - # 3
    frequency:    1.4329760934
  - # 4
    frequency:    6.4676244036
  - # 5
    frequency:    6.4676244036
  - # 6
    frequency:    6.5753947901

- q-position: [    0.0600000,    0.0000000,    0.0600000 ]
  distance:    0.1713993
  band:
  - # 1
    frequency:    1.0291282745
  - # 2
    frequency:    1.0291282745
  - # 3
    frequency:    1.3276735201
  - # 4
    frequency:    6.4349710109
  - # 5
    frequency:    6.4349710109
  - # 6
    frequency:    6.5274163886
