16   
2    

1    
  0.0000000000000000   0.0707106781186548   0.0707106781186548
  -0.0000000000   -0.5109694200   -0.5109694200
   0.0000000000    0.2441277500    0.2441277500
   0.1556774000   -0.0253588500    0.0873775600
  -0.1556774000    0.0873775600   -0.0253588500
   0.1556774000    0.0873775600   -0.0253588500
  -0.1556774000   -0.0253588500    0.0873775600
  -0.0000000000   -0.0680665700   -0.0680665700
   0.0000000000    0.0582676300    0.0582676300
  -0.0031665200   -0.0146872100   -0.0146872100
  -0.0001850400    0.0310503500    0.0310503500
   0.0000000000    0.0572009900    0.0304257600
   0.0000000000    0.0297975200    0.0024526300
   0.0000000000    0.0304257600    0.0572009900
   0.0000000000    0.0024526300    0.0297975200
   0.0001850400    0.0310503500    0.0310503500
   0.0031665200   -0.0146872100   -0.0146872100

9    
  0.0000000000000000   0.0707106781186548   0.0707106781186548
   0.0020766900   -0.0146078900   -0.0146078900
  -0.0011112100    0.0310304600    0.0310304600
   0.0000000000    0.0041778500    0.0303190400
   0.0000000000    0.0303351100    0.0541280300
   0.0000000000    0.0303190400    0.0041778500
   0.0000000000    0.0541280300    0.0303351100
   0.0011112100    0.0310304600    0.0310304600
  -0.0020766900   -0.0146078900   -0.0146078900
  -0.0000000000   -0.3537379400   -0.3537379400
  -0.0000000000    0.1023628700    0.1023628700
   0.0721922100   -0.0121159100    0.0298586400
  -0.0721922100    0.0298586400   -0.0121159100
   0.0721922100    0.0298586400   -0.0121159100
  -0.0721922100   -0.0121159100    0.0298586400
   0.0000000000   -0.0423823500   -0.0423823500
   0.0000000000    0.1064668000    0.1064668000
