 vasp.5.4.1 24Jun15 (build Nov 12 2015 13:14:48) complex                        
  
 executed on             IFC_2016 date 2017.02.27  15:26:12
 running on   16 total cores
 distrk:  each k-point on   16 cores,    1 groups
 distr:  one band on NCORES_PER_BAND=   8 cores,    2 groups


--------------------------------------------------------------------------------------------------------


 INCAR:
 POTCAR:    PAW_PBE Sr_sv 07Sep2000               
 POTCAR:    PAW_PBE O 08Apr2002                   
 POTCAR:    PAW_PBE Sr_sv 07Sep2000               
   VRHFIN =Sr: 4s4p5s                                                           
   LEXCH  = PE                                                                  
   EATOM  =   843.0319 eV,   61.9611 Ry                                         
                                                                                
   TITEL  = PAW_PBE Sr_sv 07Sep2000                                             
   LULTRA =        F    use ultrasoft PP ?                                      
   IUNSCR =        1    unscreen: 0-lin 1-nonlin 2-no                           
   RPACOR =    2.200    partial core radius                                     
   POMASS =   87.620; ZVAL   =   10.000    mass and valenz                      
   RCORE  =    2.500    outmost cutoff radius                                   
   RWIGS  =    4.040; RWIGS  =    2.138    wigner-seitz radius (au A)           
   ENMAX  =  229.353; ENMIN  =  172.014 eV                                      
   RCLOC  =    2.201    cutoff for local pot                                    
   LCOR   =        T    correct aug charges                                     
   LPAW   =        T    paw PP                                                  
   EAUG   =  366.804                                                            
   DEXC   =    0.000                                                            
   RMAX   =    2.547    core radius for proj-oper                               
   RAUG   =    1.300    factor for augmentation sphere                          
   RDEP   =    2.562    radius for radial grids                                 
   RDEPT  =    2.128    core radius for aug-charge                              
                                                                                
   Atomic configuration                                                         
   10 entries                                                                   
     n  l   j            E        occ.                                          
     1  0  0.50    -15934.8930   2.0000                                         
     2  0  0.50     -2157.6250   2.0000                                         
     2  1  1.50     -1917.0034   6.0000                                         
     3  0  0.50      -333.7288   2.0000                                         
     3  1  1.50      -256.0992   6.0000                                         
     3  2  2.50      -127.9971  10.0000                                         
     4  0  0.50       -40.8953   2.0000                                         
     5  0  0.50        -3.5257   1.9990                                         
     4  1  1.50       -22.8179   6.0000                                         
     4  2  1.50        -1.2815   0.0010                                         
   Description                                                                  
     l       E           TYP  RCUT    TYP  RCUT                                 
     0    -40.8953213     23  2.480                                             
     0     -3.5257161     23  2.480                                             
     1    -22.8178632     23  2.500                                             
     1    -24.1784458     23  2.500                                             
     2     -1.2814598     23  2.500                                             
     2      0.2279365     23  2.500                                             
  local pseudopotential read in
  partial core-charges read in
  partial kinetic energy density read in
  atomic valenz-charges read in
  non local Contribution for L=           0  read in
    real space projection operators read in
  non local Contribution for L=           0  read in
    real space projection operators read in
  non local Contribution for L=           1  read in
    real space projection operators read in
  non local Contribution for L=           1  read in
    real space projection operators read in
  non local Contribution for L=           2  read in
    real space projection operators read in
  non local Contribution for L=           2  read in
    real space projection operators read in
    PAW grid and wavefunctions read in
 
   number of l-projection  operators is LMAX  =           6
   number of lm-projection operators is LMMAX =          18
 
 POTCAR:    PAW_PBE O 08Apr2002                   
   VRHFIN =O: s2p4                                                              
   LEXCH  = PE                                                                  
   EATOM  =   432.3788 eV,   31.7789 Ry                                         
                                                                                
   TITEL  = PAW_PBE O 08Apr2002                                                 
   LULTRA =        F    use ultrasoft PP ?                                      
   IUNSCR =        1    unscreen: 0-lin 1-nonlin 2-no                           
   RPACOR =    1.200    partial core radius                                     
   POMASS =   16.000; ZVAL   =    6.000    mass and valenz                      
   RCORE  =    1.520    outmost cutoff radius                                   
   RWIGS  =    1.550; RWIGS  =    0.820    wigner-seitz radius (au A)           
   ENMAX  =  400.000; ENMIN  =  300.000 eV                                      
   ICORE  =        2    local potential                                         
   LCOR   =        T    correct aug charges                                     
   LPAW   =        T    paw PP                                                  
   EAUG   =  605.392                                                            
   DEXC   =    0.000                                                            
   RMAX   =    1.553    core radius for proj-oper                               
   RAUG   =    1.300    factor for augmentation sphere                          
   RDEP   =    1.550    radius for radial grids                                 
   RDEPT  =    1.329    core radius for aug-charge                              
                                                                                
   Atomic configuration                                                         
    4 entries                                                                   
     n  l   j            E        occ.                                          
     1  0  0.50      -514.6923   2.0000                                         
     2  0  0.50       -23.9615   2.0000                                         
     2  1  0.50        -9.0305   4.0000                                         
     3  2  1.50        -9.5241   0.0000                                         
   Description                                                                  
     l       E           TYP  RCUT    TYP  RCUT                                 
     0    -23.9615318     23  1.200                                             
     0     -9.5240782     23  1.200                                             
     1     -9.0304911     23  1.520                                             
     1      8.1634956     23  1.520                                             
     2     -9.5240782      7  1.500                                             
  local pseudopotential read in
  partial core-charges read in
  partial kinetic energy density read in
  kinetic energy density of atom read in
  atomic valenz-charges read in
  non local Contribution for L=           0  read in
    real space projection operators read in
  non local Contribution for L=           0  read in
    real space projection operators read in
  non local Contribution for L=           1  read in
    real space projection operators read in
  non local Contribution for L=           1  read in
    real space projection operators read in
    PAW grid and wavefunctions read in
 
   number of l-projection  operators is LMAX  =           4
   number of lm-projection operators is LMMAX =           8
 

 ----------------------------------------------------------------------------- 
|                                                                             |
|  ADVICE TO THIS USER RUNNING 'VASP/VAMP'   (HEAR YOUR MASTER'S VOICE ...):  |
|                                                                             |
|      You enforced a specific xc-type in the INCAR file,                     |
|      a different type was found on the POTCAR file                          |
|          I HOPE YOU KNOW, WHAT YOU ARE  DOING                               |
|                                                                             |
 ----------------------------------------------------------------------------- 

  PAW_PBE Sr_sv 07Sep2000               :
 energy of atom  1       EATOM= -843.0319
 kinetic energy error for atom=    0.0002 (will be added to EATOM!!)
  PAW_PBE O 08Apr2002                   :
 energy of atom  2       EATOM= -432.3788
 kinetic energy error for atom=    0.0041 (will be added to EATOM!!)
 
 
 POSCAR: Sr O                                    
  positions in direct lattice
  No initial velocities read in
 exchange correlation table for  LEXCH =       14
   RHO(1)=    0.500       N(1)  =     2000
   RHO(2)=  100.500       N(2)  =     4000
 


--------------------------------------------------------------------------------------------------------


 ion  position               nearest neighbor table
   1  0.000  0.000  0.000-  10 2.57  11 2.57  12 2.57  13 2.57  14 2.57  15 2.57   2 3.63   3 3.63
                             5 3.63   5 3.63   6 3.63   7 3.63   3 3.63   4 3.63   7 3.63   2 3.63
   2  0.500  0.000  0.000-  11 2.57  12 2.57  13 2.57  14 2.57  16 2.57   9 2.57   1 3.63   4 3.63
                             6 3.63   5 3.63   6 3.63   8 3.63   3 3.63   4 3.63   8 3.63   1 3.63
   3  0.000  0.500  0.000-  10 2.57  12 2.57  13 2.57  15 2.57  16 2.57   9 2.64   1 3.63   4 3.63
                             7 3.63   5 3.63   7 3.63   8 3.63   1 3.63   2 3.63   5 3.63   2 3.63
   4  0.500  0.500  0.000-   9 2.50  10 2.57  11 2.57  14 2.57  15 2.57  16 2.57   2 3.63   3 3.63
                             8 3.63   6 3.63   7 3.63   8 3.63   1 3.63   2 3.63   6 3.63   1 3.63
   5  0.000  0.000  0.500-  10 2.57  11 2.57  14 2.57  15 2.57  16 2.57   9 2.64   1 3.63   6 3.63
                             7 3.63   1 3.63   2 3.63   3 3.63   3 3.63   7 3.63   8 3.63   2 3.63
   6  0.500  0.000  0.500-   9 2.50  10 2.57  12 2.57  13 2.57  15 2.57  16 2.57   2 3.63   5 3.63
                             8 3.63   1 3.63   2 3.63   4 3.63   4 3.63   7 3.63   8 3.63   1 3.63
   7  0.000  0.500  0.500-  11 2.57  12 2.57  13 2.57  14 2.57  16 2.57   9 2.57   3 3.63   5 3.63
                             8 3.63   1 3.63   3 3.63   4 3.63   1 3.63   5 3.63   6 3.63   4 3.63
   8  0.500  0.500  0.500-  10 2.57  11 2.57  12 2.57  13 2.57  14 2.57  15 2.57   4 3.63   6 3.63
                             7 3.63   2 3.63   3 3.63   4 3.63   2 3.63   5 3.63   6 3.63   3 3.63
   9  0.264  0.250  0.250-   4 2.50   6 2.50   2 2.57   7 2.57   3 2.64   5 2.64
  10  0.750  0.250  0.250-   1 2.57   3 2.57   4 2.57   5 2.57   6 2.57   8 2.57
  11  0.250  0.750  0.250-   1 2.57   2 2.57   4 2.57   5 2.57   7 2.57   8 2.57
  12  0.750  0.750  0.250-   1 2.57   2 2.57   3 2.57   6 2.57   7 2.57   8 2.57
  13  0.250  0.250  0.750-   1 2.57   2 2.57   3 2.57   6 2.57   7 2.57   8 2.57
  14  0.750  0.250  0.750-   1 2.57   2 2.57   4 2.57   5 2.57   7 2.57   8 2.57
  15  0.250  0.750  0.750-   1 2.57   3 2.57   4 2.57   5 2.57   6 2.57   8 2.57
  16  0.750  0.750  0.750-   2 2.57   3 2.57   4 2.57   5 2.57   6 2.57   7 2.57
 
  LATTYP: Found a face centered cubic cell.
 ALAT       =    10.2684199605
  
  Lattice vectors:
  
 A1 = (   0.0000000000,   5.1342099802,   5.1342099802)
 A2 = (   5.1342099802,   0.0000000000,   5.1342099802)
 A3 = (   5.1342099802,   5.1342099802,   0.0000000000)


Analysis of symmetry for initial positions (statically):
=====================================================================
 Subroutine PRICEL returns:
 Original cell was already a primitive cell.
 

 Routine SETGRP: Setting up the symmetry group for a 
 face centered cubic supercell.


 Subroutine GETGRP returns: Found  4 space group operations
 (whereof  2 operations were pure point group operations)
 out of a pool of 48 trial point group operations.


The static configuration has the point symmetry C_1h.
 The point group associated with its full space group is C_2v.


Analysis of symmetry for dynamics (positions and initial velocities):
=====================================================================
 Subroutine PRICEL returns:
 Original cell was already a primitive cell.
 

 Routine SETGRP: Setting up the symmetry group for a 
 face centered cubic supercell.


 Subroutine GETGRP returns: Found  4 space group operations
 (whereof  2 operations were pure point group operations)
 out of a pool of 48 trial point group operations.


The dynamic configuration has the point symmetry C_1h.
 The point group associated with its full space group is C_2v.


 Subroutine INISYM returns: Found  4 space group operations
 (whereof  2 operations are pure point group operations),
 and found     1 'primitive' translations

 
 
 KPOINTS: Automatic 4x4x4                         

Automatic generation of k-mesh.
Space group operators:
 irot       det(A)        alpha          n_x          n_y          n_z        tau_x        tau_y        tau_z
    1     1.000000     0.000001     1.000000     0.000000     0.000000     0.000000     0.000000     0.000000
    2    -1.000000   180.000000     0.000000    -0.707107     0.707107     0.000000     0.000000     0.000000
    3     1.000000   180.000000     0.000000     0.707107     0.707107     0.500000     0.500000     0.500000
    4    -1.000000   180.000000     1.000000     0.000000     0.000000     0.500000     0.500000     0.500000
 
 Subroutine IBZKPT returns following result:
 ===========================================
 
 Found     18 irreducible k-points:
 
 Following reciprocal coordinates:
            Coordinates               Weight
  0.000000  0.000000  0.000000      1.000000
  0.250000  0.000000  0.000000      4.000000
  0.500000  0.000000  0.000000      2.000000
  0.000000  0.250000  0.000000      4.000000
  0.250000  0.250000  0.000000      4.000000
  0.500000  0.250000  0.000000      8.000000
 -0.250000  0.250000  0.000000      8.000000
  0.000000  0.500000  0.000000      2.000000
  0.250000  0.500000  0.000000      8.000000
  0.500000  0.500000  0.000000      2.000000
  0.000000  0.250000  0.250000      2.000000
  0.500000  0.250000  0.250000      2.000000
 -0.250000  0.250000  0.250000      4.000000
  0.000000  0.500000  0.250000      4.000000
 -0.250000  0.500000  0.250000      4.000000
  0.000000 -0.250000  0.250000      2.000000
  0.500000 -0.250000  0.250000      2.000000
  0.000000  0.500000  0.500000      1.000000
 
 Following cartesian coordinates:
            Coordinates               Weight
  0.000000  0.000000  0.000000      1.000000
 -0.024346  0.024346  0.024346      4.000000
 -0.048693  0.048693  0.048693      2.000000
  0.024346 -0.024346  0.024346      4.000000
  0.000000  0.000000  0.048693      4.000000
 -0.024346  0.024346  0.073039      8.000000
  0.048693 -0.048693  0.000000      8.000000
  0.048693 -0.048693  0.048693      2.000000
  0.024346 -0.024346  0.073039      8.000000
  0.000000  0.000000  0.097386      2.000000
  0.048693  0.000000  0.000000      2.000000
  0.000000  0.048693  0.048693      2.000000
  0.073039 -0.024346 -0.024346      4.000000
  0.073039 -0.024346  0.024346      4.000000
  0.097386 -0.048693 -0.000000      4.000000
  0.000000  0.048693 -0.048693      2.000000
 -0.048693  0.097386 -0.000000      2.000000
  0.097386  0.000000  0.000000      1.000000
 


--------------------------------------------------------------------------------------------------------




 Dimension of arrays:
   k-points           NKPTS =     18   k-points in BZ     NKDIM =     18   number of bands    NBANDS=     76
   number of dos      NEDOS =    301   number of ions     NIONS =     16
   non local maximal  LDIM  =      6   non local SUM 2l+1 LMDIM =     18
   total plane-waves  NPLWV = 343000
   max r-space proj   IRMAX =      1   max aug-charges    IRDMAX= 594561
   dimension x,y,z NGX =    70 NGY =   70 NGZ =   70
   dimension x,y,z NGXF=   140 NGYF=  140 NGZF=  140
   support grid    NGXF=   280 NGYF=  280 NGZF=  280
   ions per type =               8   8
 NGX,Y,Z   is equivalent  to a cutoff of  16.03, 16.03, 16.03 a.u.
 NGXF,Y,Z  is equivalent  to a cutoff of  32.05, 32.05, 32.05 a.u.


 I would recommend the setting:
   dimension x,y,z NGX =    67 NGY =   67 NGZ =   67
 SYSTEM =  SrO                                     
 POSCAR =  Sr O                                    

 Startparameter for this run:
   NWRITE =      2    write-flag & timer
   PREC   = accura    normal or accurate (medium, high low for compatibility)
   ISTART =      0    job   : 0-new  1-cont  2-samecut
   ICHARG =      2    charge: 1-file 2-atom 10-const
   ISPIN  =      1    spin polarized calculation?
   LNONCOLLINEAR =      F non collinear calculations
   LSORBIT =      F    spin-orbit coupling
   INIWAV =      1    electr: 0-lowe 1-rand  2-diag
   LASPH  =      T    aspherical Exc in radial PAW
   METAGGA=      F    non-selfconsistent MetaGGA calc.

 Electronic Relaxation 1
   ENCUT  =  800.0 eV  58.80 Ry    7.67 a.u.  16.75 16.75 16.75*2*pi/ulx,y,z
   ENINI  =  800.0     initial cutoff
   ENAUG  =  605.4 eV  augmentation charge cutoff
   NELM   =     60;   NELMIN=  2; NELMDL= -5     # of ELM steps 
   EDIFF  = 0.1E-07   stopping-criterion for ELM
   LREAL  =      F    real-space projection
   NLSPLINE    = F    spline interpolate recip. space projectors
   LCOMPAT=      F    compatible to vasp.4.4
   GGA_COMPAT  = T    GGA compatible to vasp.4.4-vasp.4.6
   LMAXPAW     = -100 max onsite density
   LMAXMIX     =    2 max onsite mixed and CHGCAR
   VOSKOWN=      0    Vosko Wilk Nusair interpolation
   ROPT   =    0.00000   0.00000
 Ionic relaxation
   EDIFFG = 0.1E-06   stopping-criterion for IOM
   NSW    =      0    number of steps for IOM
   NBLOCK =      1;   KBLOCK =      1    inner block; outer block 
   IBRION =     -1    ionic relax: 0-MD 1-quasi-New 2-CG
   NFREE  =      0    steps in history (QN), initial steepest desc. (CG)
   ISIF   =      2    stress and relaxation
   IWAVPR =     10    prediction:  0-non 1-charg 2-wave 3-comb
   ISYM   =      2    0-nonsym 1-usesym 2-fastsym
   LCORR  =      T    Harris-Foulkes like correction to forces

   POTIM  = 0.5000    time-step for ionic-motion
   TEIN   =    0.0    initial temperature
   TEBEG  =    0.0;   TEEND  =   0.0 temperature during run
   SMASS  =  -3.00    Nose mass-parameter (am)
   estimated Nose-frequenzy (Omega)   =  0.10E-29 period in steps =****** mass=  -0.120E-26a.u.
   SCALEE = 1.0000    scale energy and forces
   NPACO  =    256;   APACO  = 16.0  distance and # of slots for P.C.
   PSTRESS=    0.0 pullay stress

  Mass of Ions in am
   POMASS =  87.62 16.00
  Ionic Valenz
   ZVAL   =  10.00  6.00
  Atomic Wigner-Seitz radii
   RWIGS  =  -1.00 -1.00
  virtual crystal weights 
   VCA    =   1.00  1.00
   NELECT =     128.0000    total number of electrons
   NUPDOWN=      -1.0000    fix difference up-down

 DOS related values:
   EMIN   =  10.00;   EMAX   =-10.00  energy-range for DOS
   EFERMI =   0.00
   ISMEAR =     0;   SIGMA  =   0.01  broadening in eV -4-tet -1-fermi 0-gaus

 Electronic relaxation 2 (details)
   IALGO  =     38    algorithm
   LDIAG  =      T    sub-space diagonalisation (order eigenvalues)
   LSUBROT=      F    optimize rotation matrix (better conditioning)
   TURBO    =      0    0=normal 1=particle mesh
   IRESTART =      0    0=no restart 2=restart with 2 vectors
   NREBOOT  =      0    no. of reboots
   NMIN     =      0    reboot dimension
   EREF     =   0.00    reference energy to select bands
   IMIX   =      4    mixing-type and parameters
     AMIX     =   0.40;   BMIX     =  1.00
     AMIX_MAG =   1.60;   BMIX_MAG =  1.00
     AMIN     =   0.10
     WC   =   100.;   INIMIX=   1;  MIXPRE=   1;  MAXMIX= -45

 Intra band minimization:
   WEIMIN = 0.0000     energy-eigenvalue tresh-hold
   EBREAK =  0.33E-10  absolut break condition
   DEPER  =   0.30     relativ break condition  

   TIME   =   0.40     timestep for ELM

  volume/ion in A,a.u.               =      16.92       114.16
  Fermi-wavevector in a.u.,A,eV,Ry     =   1.275443  2.410239 22.133358  1.626756
  Thomas-Fermi vector in A             =   2.408155
 
 Write flags
   LWAVE  =      F    write WAVECAR
   LCHARG =      F    write CHGCAR
   LVTOT  =      F    write LOCPOT, total local potential
   LVHAR  =      F    write LOCPOT, Hartree potential only
   LELF   =      F    write electronic localiz. function (ELF)
   LORBIT =      0    0 simple, 1 ext, 2 COOP (PROOUT)


 Dipole corrections
   LMONO  =      F    monopole corrections only (constant potential shift)
   LDIPOL =      F    correct potential (dipole corrections)
   IDIPOL =      0    1-x, 2-y, 3-z, 4-all directions 
   EPSILON=  1.0000000 bulk dielectric constant

 Exchange correlation treatment:
   GGA     =    PS    GGA type
   LEXCH   =    14    internal setting for exchange type
   VOSKOWN=      0    Vosko Wilk Nusair interpolation
   LHFCALC =     F    Hartree Fock is set to
   LHFONE  =     F    Hartree Fock one center treatment
   AEXX    =    0.0000 exact exchange contribution

 Linear response parameters
   LEPSILON=     F    determine dielectric tensor
   LRPA    =     F    only Hartree local field effects (RPA)
   LNABLA  =     F    use nabla operator in PAW spheres
   LVEL    =     F    velocity operator in full k-point grid
   LINTERFAST=   F  fast interpolation
   KINTER  =     0    interpolate to denser k-point grid
   CSHIFT  =0.1000    complex shift for real part using Kramers Kronig
   OMEGAMAX=  -1.0    maximum frequency
   DEG_THRESHOLD= 0.2000000E-02 threshold for treating states as degnerate
   RTIME   =    0.100 relaxation time in fs

 Orbital magnetization related:
   ORBITALMAG=     F  switch on orbital magnetization
   LCHIMAG   =     F  perturbation theory with respect to B field
   DQ        =  0.001000  dq finite difference perturbation B field



--------------------------------------------------------------------------------------------------------


 Static calculation
 charge density and potential will be updated during run
 non-spin polarized calculation
 Variant of blocked Davidson
 Davidson routine will perform the subspace rotation
 perform sub-space diagonalisation
    after iterative eigenvector-optimisation
 modified Broyden-mixing scheme, WC =      100.0
 initial mixing is a Kerker type mixing with AMIX =  0.4000 and BMIX =      1.0000
 Hartree-type preconditioning will be used
 using additional bands           12
 reciprocal scheme for non local part
 use partial core corrections
 calculate Harris-corrections to forces 
   (improved forces if not selfconsistent)
 use gradient corrections 
 use of overlap-Matrix (Vanderbilt PP)
 Gauss-broadening in eV      SIGMA  =   0.01


--------------------------------------------------------------------------------------------------------


  energy-cutoff  :      800.00
  volume of cell :      270.68
      direct lattice vectors                 reciprocal lattice vectors
     0.000000000  5.134209980  5.134209980    -0.097385966  0.097385966  0.097385966
     5.134209980  0.000000000  5.134209980     0.097385966 -0.097385966  0.097385966
     5.134209980  5.134209980  0.000000000     0.097385966  0.097385966 -0.097385966

  length of vectors
     7.260869386  7.260869386  7.260869386     0.168677442  0.168677442  0.168677442


 
 k-points in units of 2pi/SCALE and weight: Automatic 4x4x4                         
   0.00000000  0.00000000  0.00000000       0.016
  -0.02434649  0.02434649  0.02434649       0.062
  -0.04869298  0.04869298  0.04869298       0.031
   0.02434649 -0.02434649  0.02434649       0.062
   0.00000000  0.00000000  0.04869298       0.062
  -0.02434649  0.02434649  0.07303947       0.125
   0.04869298 -0.04869298  0.00000000       0.125
   0.04869298 -0.04869298  0.04869298       0.031
   0.02434649 -0.02434649  0.07303947       0.125
   0.00000000  0.00000000  0.09738597       0.031
   0.04869298  0.00000000  0.00000000       0.031
   0.00000000  0.04869298  0.04869298       0.031
   0.07303947 -0.02434649 -0.02434649       0.062
   0.07303947 -0.02434649  0.02434649       0.062
   0.09738597 -0.04869298 -0.00000000       0.062
   0.00000000  0.04869298 -0.04869298       0.031
  -0.04869298  0.09738597 -0.00000000       0.031
   0.09738597  0.00000000  0.00000000       0.016
 
 k-points in reciprocal lattice and weights: Automatic 4x4x4                         
   0.00000000  0.00000000  0.00000000       0.016
   0.25000000  0.00000000  0.00000000       0.062
   0.50000000  0.00000000  0.00000000       0.031
   0.00000000  0.25000000  0.00000000       0.062
   0.25000000  0.25000000  0.00000000       0.062
   0.50000000  0.25000000  0.00000000       0.125
  -0.25000000  0.25000000  0.00000000       0.125
   0.00000000  0.50000000  0.00000000       0.031
   0.25000000  0.50000000  0.00000000       0.125
   0.50000000  0.50000000  0.00000000       0.031
   0.00000000  0.25000000  0.25000000       0.031
   0.50000000  0.25000000  0.25000000       0.031
  -0.25000000  0.25000000  0.25000000       0.062
   0.00000000  0.50000000  0.25000000       0.062
  -0.25000000  0.50000000  0.25000000       0.062
   0.00000000 -0.25000000  0.25000000       0.031
   0.50000000 -0.25000000  0.25000000       0.031
   0.00000000  0.50000000  0.50000000       0.016
 
 position of ions in fractional coordinates (direct lattice) 
   0.00000000  0.00000000  0.00000000
   0.50000000  0.00000000  0.00000000
   0.00000000  0.50000000  0.00000000
   0.50000000  0.50000000  0.00000000
   0.00000000  0.00000000  0.50000000
   0.50000000  0.00000000  0.50000000
   0.00000000  0.50000000  0.50000000
   0.50000000  0.50000000  0.50000000
   0.26377246  0.25000000  0.25000000
   0.75000000  0.25000000  0.25000000
   0.25000000  0.75000000  0.25000000
   0.75000000  0.75000000  0.25000000
   0.25000000  0.25000000  0.75000000
   0.75000000  0.25000000  0.75000000
   0.25000000  0.75000000  0.75000000
   0.75000000  0.75000000  0.75000000
 
 position of ions in cartesian coordinates  (Angst):
   0.00000000  0.00000000  0.00000000
   0.00000000  2.56710499  2.56710499
   2.56710499  0.00000000  2.56710499
   2.56710499  2.56710499  5.13420998
   2.56710499  2.56710499  0.00000000
   2.56710499  5.13420998  2.56710499
   5.13420998  2.56710499  2.56710499
   5.13420998  5.13420998  5.13420998
   2.56710499  2.63781567  2.63781567
   2.56710499  5.13420998  5.13420998
   5.13420998  2.56710499  5.13420998
   5.13420998  5.13420998  7.70131497
   5.13420998  5.13420998  2.56710499
   5.13420998  7.70131497  5.13420998
   7.70131497  5.13420998  5.13420998
   7.70131497  7.70131497  7.70131497
 


--------------------------------------------------------------------------------------------------------


 k-point  1 :   0.0000 0.0000 0.0000  plane waves:   13851
 k-point  2 :   0.2500 0.0000 0.0000  plane waves:   13905
 k-point  3 :   0.5000 0.0000 0.0000  plane waves:   13960
 k-point  4 :   0.0000 0.2500 0.0000  plane waves:   13905
 k-point  5 :   0.2500 0.2500 0.0000  plane waves:   13944
 k-point  6 :   0.5000 0.2500 0.0000  plane waves:   13909
 k-point  7 :  -0.2500 0.2500 0.0000  plane waves:   13873
 k-point  8 :   0.0000 0.5000 0.0000  plane waves:   13960
 k-point  9 :   0.2500 0.5000 0.0000  plane waves:   13909
 k-point 10 :   0.5000 0.5000 0.0000  plane waves:   13888
 k-point 11 :   0.0000 0.2500 0.2500  plane waves:   13944
 k-point 12 :   0.5000 0.2500 0.2500  plane waves:   13873
 k-point 13 :  -0.2500 0.2500 0.2500  plane waves:   13909
 k-point 14 :   0.0000 0.5000 0.2500  plane waves:   13909
 k-point 15 :  -0.2500 0.5000 0.2500  plane waves:   13868
 k-point 16 :   0.0000-0.2500 0.2500  plane waves:   13873
 k-point 17 :   0.5000-0.2500 0.2500  plane waves:   13868
 k-point 18 :   0.0000 0.5000 0.5000  plane waves:   13888

 maximum and minimum number of plane-waves per node :      1763     1688

 maximum number of plane-waves:     13960
 maximum index in each direction: 
   IXMAX=   16   IYMAX=   16   IZMAX=   16
   IXMIN=  -17   IYMIN=  -17   IZMIN=  -17

 NGX is ok and might be reduce to  68
 NGY is ok and might be reduce to  68
 NGZ is ok and might be reduce to  68

 parallel 3D FFT for wavefunctions:
    minimum data exchange during FFTs selected (reduces bandwidth)
 parallel 3D FFT for charge:
    minimum data exchange during FFTs selected (reduces bandwidth)


 total amount of memory used by VASP on root node    97735. kBytes
========================================================================

   base      :      30000. kBytes
   nonl-proj :       9520. kBytes
   fftplans  :      26995. kBytes
   grid      :      11753. kBytes
   one-center:         31. kBytes
   wavefun   :      19436. kBytes
 
     INWAV:  cpu time    0.0000: real time    0.0000
 Broyden mixing: mesh for mixing (old mesh)
   NGX = 33   NGY = 33   NGZ = 33
  (NGX  =140   NGY  =140   NGZ  =140)
  gives a total of  35937 points

 initial charge density was supplied:
 charge density of overlapping atoms calculated
 number of electron     128.0000000 magnetization 
 keeping initial charge density in first step


--------------------------------------------------------------------------------------------------------


 Maximum index for augmentation-charges        39792 (set IRDMAX)


--------------------------------------------------------------------------------------------------------


 First call to EWALD:  gamma=   0.274
 Maximum number of real-space cells 3x 3x 3
 Maximum number of reciprocal cells 3x 3x 3

 FEWALD executed in parallel
    FEWALD:  cpu time    0.0000: real time    0.0016


----------------------------------------- Iteration    1(   1)  ---------------------------------------


    POTLOK:  cpu time    0.1520: real time    0.1521
    SETDIJ:  cpu time    0.5240: real time    0.5225
     EDDAV:  cpu time    7.0720: real time    7.0755
       DOS:  cpu time    0.0040: real time    0.0014
    --------------------------------------------
      LOOP:  cpu time    7.7520: real time    7.7529

 eigenvalue-minimisations  :  2736
 total energy-change (2. order) : 0.1120778E+04  (-0.8586156E+04)
 number of electron     128.0000000 magnetization 
 augmentation part      128.0000000 magnetization 

 Free energy of the ion-electron system (eV)
  ---------------------------------------------------
  alpha Z        PSCENC =       796.84035699
  Ewald energy   TEWEN  =     -8461.55223116
  -Hartree energ DENC   =     -1829.30969354
  -exchange      EXHF   =         0.00000000
  -V(xc)+E(xc)   XCENC  =       513.01206631
  PAW double counting   =      7817.12183272    -7712.97334390
  entropy T*S    EENTRO =        -0.00042286
  eigenvalues    EBANDS =      -186.88292327
  atomic energy  EATOM  =     10184.52279430
  Solvation  Ediel_sol  =         0.00000000
  ---------------------------------------------------
  free energy    TOTEN  =      1120.77843558 eV

  energy without entropy =     1120.77885844  energy(sigma->0) =     1120.77864701


--------------------------------------------------------------------------------------------------------




----------------------------------------- Iteration    1(   2)  ---------------------------------------


     EDDAV:  cpu time    8.4240: real time    8.4306
       DOS:  cpu time    0.0000: real time    0.0003
    --------------------------------------------
      LOOP:  cpu time    8.4240: real time    8.4314

 eigenvalue-minimisations  :  3496
 total energy-change (2. order) :-0.1144422E+04  (-0.1102829E+04)
 number of electron     128.0000000 magnetization 
 augmentation part      128.0000000 magnetization 

 Free energy of the ion-electron system (eV)
  ---------------------------------------------------
  alpha Z        PSCENC =       796.84035699
  Ewald energy   TEWEN  =     -8461.55223116
  -Hartree energ DENC   =     -1829.30969354
  -exchange      EXHF   =         0.00000000
  -V(xc)+E(xc)   XCENC  =       513.01206631
  PAW double counting   =      7817.12183272    -7712.97334390
  entropy T*S    EENTRO =        -0.00000000
  eigenvalues    EBANDS =     -1331.30505791
  atomic energy  EATOM  =     10184.52279430
  Solvation  Ediel_sol  =         0.00000000
  ---------------------------------------------------
  free energy    TOTEN  =       -23.64327620 eV

  energy without entropy =      -23.64327620  energy(sigma->0) =      -23.64327620


--------------------------------------------------------------------------------------------------------




----------------------------------------- Iteration    1(   3)  ---------------------------------------


     EDDAV:  cpu time    8.2960: real time    8.3034
       DOS:  cpu time    0.0040: real time    0.0003
    --------------------------------------------
      LOOP:  cpu time    8.3040: real time    8.3043

 eigenvalue-minimisations  :  3424
 total energy-change (2. order) :-0.8826512E+02  (-0.8776720E+02)
 number of electron     128.0000000 magnetization 
 augmentation part      128.0000000 magnetization 

 Free energy of the ion-electron system (eV)
  ---------------------------------------------------
  alpha Z        PSCENC =       796.84035699
  Ewald energy   TEWEN  =     -8461.55223116
  -Hartree energ DENC   =     -1829.30969354
  -exchange      EXHF   =         0.00000000
  -V(xc)+E(xc)   XCENC  =       513.01206631
  PAW double counting   =      7817.12183272    -7712.97334390
  entropy T*S    EENTRO =        -0.00000000
  eigenvalues    EBANDS =     -1419.57017430
  atomic energy  EATOM  =     10184.52279430
  Solvation  Ediel_sol  =         0.00000000
  ---------------------------------------------------
  free energy    TOTEN  =      -111.90839258 eV

  energy without entropy =     -111.90839258  energy(sigma->0) =     -111.90839258


--------------------------------------------------------------------------------------------------------




----------------------------------------- Iteration    1(   4)  ---------------------------------------


     EDDAV:  cpu time    9.4080: real time    9.4134
       DOS:  cpu time    0.0000: real time    0.0003
    --------------------------------------------
      LOOP:  cpu time    9.4080: real time    9.4142

 eigenvalue-minimisations  :  4048
 total energy-change (2. order) :-0.4876166E+01  (-0.4867517E+01)
 number of electron     128.0000000 magnetization 
 augmentation part      128.0000000 magnetization 

 Free energy of the ion-electron system (eV)
  ---------------------------------------------------
  alpha Z        PSCENC =       796.84035699
  Ewald energy   TEWEN  =     -8461.55223116
  -Hartree energ DENC   =     -1829.30969354
  -exchange      EXHF   =         0.00000000
  -V(xc)+E(xc)   XCENC  =       513.01206631
  PAW double counting   =      7817.12183272    -7712.97334390
  entropy T*S    EENTRO =        -0.00000000
  eigenvalues    EBANDS =     -1424.44633980
  atomic energy  EATOM  =     10184.52279430
  Solvation  Ediel_sol  =         0.00000000
  ---------------------------------------------------
  free energy    TOTEN  =      -116.78455809 eV

  energy without entropy =     -116.78455809  energy(sigma->0) =     -116.78455809


--------------------------------------------------------------------------------------------------------




----------------------------------------- Iteration    1(   5)  ---------------------------------------


     EDDAV:  cpu time    8.8600: real time    8.8632
       DOS:  cpu time    0.0000: real time    0.0003
    CHARGE:  cpu time    0.8520: real time    0.8518
    MIXING:  cpu time    0.0080: real time    0.0073
    --------------------------------------------
      LOOP:  cpu time    9.7200: real time    9.7231

 eigenvalue-minimisations  :  3736
 total energy-change (2. order) :-0.1707960E+00  (-0.1707631E+00)
 number of electron     128.0000001 magnetization 
 augmentation part       11.4599271 magnetization 

 Broyden mixing:
  rms(total) = 0.48738E+01    rms(broyden)= 0.48738E+01
  rms(prec ) = 0.62157E+01
  weight for this iteration     100.00

 Free energy of the ion-electron system (eV)
  ---------------------------------------------------
  alpha Z        PSCENC =       796.84035699
  Ewald energy   TEWEN  =     -8461.55223116
  -Hartree energ DENC   =     -1829.30969354
  -exchange      EXHF   =         0.00000000
  -V(xc)+E(xc)   XCENC  =       513.01206631
  PAW double counting   =      7817.12183272    -7712.97334390
  entropy T*S    EENTRO =        -0.00000000
  eigenvalues    EBANDS =     -1424.61713579
  atomic energy  EATOM  =     10184.52279430
  Solvation  Ediel_sol  =         0.00000000
  ---------------------------------------------------
  free energy    TOTEN  =      -116.95535408 eV

  energy without entropy =     -116.95535408  energy(sigma->0) =     -116.95535408


--------------------------------------------------------------------------------------------------------




----------------------------------------- Iteration    1(   6)  ---------------------------------------


    POTLOK:  cpu time    0.1480: real time    0.1478
    SETDIJ:  cpu time    0.5240: real time    0.5259
     EDDAV:  cpu time    7.8960: real time    7.8989
       DOS:  cpu time    0.0000: real time    0.0005
    CHARGE:  cpu time    0.8520: real time    0.8535
    MIXING:  cpu time    0.0080: real time    0.0050
    --------------------------------------------
      LOOP:  cpu time    9.4280: real time    9.4321

 eigenvalue-minimisations  :  3188
 total energy-change (2. order) : 0.1524210E+02  (-0.1060468E+02)
 number of electron     128.0000001 magnetization 
 augmentation part        9.5712045 magnetization 

 Broyden mixing:
  rms(total) = 0.64789E+01    rms(broyden)= 0.64789E+01
  rms(prec ) = 0.65756E+01
  weight for this iteration     100.00

 eigenvalues of (default mixing * dielectric matrix)
  average eigenvalue GAMMA=   0.1777
  0.1777

 Free energy of the ion-electron system (eV)
  ---------------------------------------------------
  alpha Z        PSCENC =       796.84035699
  Ewald energy   TEWEN  =     -8461.55223116
  -Hartree energ DENC   =     -1956.08778193
  -exchange      EXHF   =         0.00000000
  -V(xc)+E(xc)   XCENC  =       521.98685214
  PAW double counting   =     10895.44183995   -10815.04877305
  entropy T*S    EENTRO =        -0.00000000
  eigenvalues    EBANDS =     -1267.81631146
  atomic energy  EATOM  =     10184.52279430
  Solvation  Ediel_sol  =         0.00000000
  ---------------------------------------------------
  free energy    TOTEN  =      -101.71325422 eV

  energy without entropy =     -101.71325422  energy(sigma->0) =     -101.71325422


--------------------------------------------------------------------------------------------------------




----------------------------------------- Iteration    1(   7)  ---------------------------------------


    POTLOK:  cpu time    0.1480: real time    0.1486
    SETDIJ:  cpu time    0.5240: real time    0.5261
     EDDAV:  cpu time    8.3720: real time    8.3741
       DOS:  cpu time    0.0000: real time    0.0005
    CHARGE:  cpu time    0.8520: real time    0.8514
    MIXING:  cpu time    0.0040: real time    0.0049
    --------------------------------------------
      LOOP:  cpu time    9.9000: real time    9.9062

 eigenvalue-minimisations  :  3456
 total energy-change (2. order) : 0.4653392E-01  (-0.8515349E+00)
 number of electron     128.0000001 magnetization 
 augmentation part        9.2034039 magnetization 

 Broyden mixing:
  rms(total) = 0.43521E+01    rms(broyden)= 0.43521E+01
  rms(prec ) = 0.44243E+01
  weight for this iteration     100.00

 eigenvalues of (default mixing * dielectric matrix)
  average eigenvalue GAMMA=   1.1518
  1.0124  1.2911

 Free energy of the ion-electron system (eV)
  ---------------------------------------------------
  alpha Z        PSCENC =       796.84035699
  Ewald energy   TEWEN  =     -8461.55223116
  -Hartree energ DENC   =     -1937.75929084
  -exchange      EXHF   =         0.00000000
  -V(xc)+E(xc)   XCENC  =       520.69293476
  PAW double counting   =     12399.62095469   -12323.13152124
  entropy T*S    EENTRO =        -0.00000000
  eigenvalues    EBANDS =     -1280.90071779
  atomic energy  EATOM  =     10184.52279430
  Solvation  Ediel_sol  =         0.00000000
  ---------------------------------------------------
  free energy    TOTEN  =      -101.66672030 eV

  energy without entropy =     -101.66672030  energy(sigma->0) =     -101.66672030


--------------------------------------------------------------------------------------------------------




----------------------------------------- Iteration    1(   8)  ---------------------------------------


    POTLOK:  cpu time    0.1480: real time    0.1478
    SETDIJ:  cpu time    0.5240: real time    0.5251
     EDDAV:  cpu time    7.7120: real time    7.7145
       DOS:  cpu time    0.0000: real time    0.0005
    CHARGE:  cpu time    0.8520: real time    0.8507
    MIXING:  cpu time    0.0040: real time    0.0050
    --------------------------------------------
      LOOP:  cpu time    9.2400: real time    9.2442

 eigenvalue-minimisations  :  3088
 total energy-change (2. order) : 0.3851830E+00  (-0.4757376E+00)
 number of electron     128.0000001 magnetization 
 augmentation part        9.4762197 magnetization 

 Broyden mixing:
  rms(total) = 0.12243E+01    rms(broyden)= 0.12243E+01
  rms(prec ) = 0.13115E+01
  weight for this iteration     100.00

 eigenvalues of (default mixing * dielectric matrix)
  average eigenvalue GAMMA=   1.3645
  2.5145  0.7895  0.7895

 Free energy of the ion-electron system (eV)
  ---------------------------------------------------
  alpha Z        PSCENC =       796.84035699
  Ewald energy   TEWEN  =     -8461.55223116
  -Hartree energ DENC   =     -1913.70257615
  -exchange      EXHF   =         0.00000000
  -V(xc)+E(xc)   XCENC  =       518.90311893
  PAW double counting   =     17068.19954651   -16997.50611454
  entropy T*S    EENTRO =        -0.00000000
  eigenvalues    EBANDS =     -1296.98643219
  atomic energy  EATOM  =     10184.52279430
  Solvation  Ediel_sol  =         0.00000000
  ---------------------------------------------------
  free energy    TOTEN  =      -101.28153731 eV

  energy without entropy =     -101.28153731  energy(sigma->0) =     -101.28153731


--------------------------------------------------------------------------------------------------------




----------------------------------------- Iteration    1(   9)  ---------------------------------------


    POTLOK:  cpu time    0.1480: real time    0.1481
    SETDIJ:  cpu time    0.5280: real time    0.5278
     EDDAV:  cpu time    8.1840: real time    8.1887
       DOS:  cpu time    0.0040: real time    0.0005
    CHARGE:  cpu time    0.8480: real time    0.8511
    MIXING:  cpu time    0.0080: real time    0.0051
    --------------------------------------------
      LOOP:  cpu time    9.7200: real time    9.7219

 eigenvalue-minimisations  :  3352
 total energy-change (2. order) : 0.1603966E+00  (-0.7750608E-01)
 number of electron     128.0000001 magnetization 
 augmentation part        9.3043669 magnetization 

 Broyden mixing:
  rms(total) = 0.34163E+00    rms(broyden)= 0.34163E+00
  rms(prec ) = 0.35054E+00
  weight for this iteration     100.00

 eigenvalues of (default mixing * dielectric matrix)
  average eigenvalue GAMMA=   1.4161
  2.3506  0.8433  0.8433  1.6270

 Free energy of the ion-electron system (eV)
  ---------------------------------------------------
  alpha Z        PSCENC =       796.84035699
  Ewald energy   TEWEN  =     -8461.55223116
  -Hartree energ DENC   =     -1923.03863678
  -exchange      EXHF   =         0.00000000
  -V(xc)+E(xc)   XCENC  =       519.56933026
  PAW double counting   =     19971.52451273   -19906.96174333
  entropy T*S    EENTRO =        -0.00000000
  eigenvalues    EBANDS =     -1282.02552376
  atomic energy  EATOM  =     10184.52279430
  Solvation  Ediel_sol  =         0.00000000
  ---------------------------------------------------
  free energy    TOTEN  =      -101.12114075 eV

  energy without entropy =     -101.12114075  energy(sigma->0) =     -101.12114075


--------------------------------------------------------------------------------------------------------




----------------------------------------- Iteration    1(  10)  ---------------------------------------


    POTLOK:  cpu time    0.1480: real time    0.1493
    SETDIJ:  cpu time    0.5240: real time    0.5241
     EDDAV:  cpu time    8.5400: real time    8.5443
       DOS:  cpu time    0.0000: real time    0.0005
    CHARGE:  cpu time    0.8520: real time    0.8529
    MIXING:  cpu time    0.0080: real time    0.0052
    --------------------------------------------
      LOOP:  cpu time   10.0720: real time   10.0769

 eigenvalue-minimisations  :  3552
 total energy-change (2. order) :-0.9229354E-02  (-0.6427078E-02)
 number of electron     128.0000001 magnetization 
 augmentation part        9.2854791 magnetization 

 Broyden mixing:
  rms(total) = 0.14477E+00    rms(broyden)= 0.14477E+00
  rms(prec ) = 0.15687E+00
  weight for this iteration     100.00

 eigenvalues of (default mixing * dielectric matrix)
  average eigenvalue GAMMA=   1.4580
  2.3361  2.3361  0.8277  0.8277  0.9622

 Free energy of the ion-electron system (eV)
  ---------------------------------------------------
  alpha Z        PSCENC =       796.84035699
  Ewald energy   TEWEN  =     -8461.55223116
  -Hartree energ DENC   =     -1920.80305922
  -exchange      EXHF   =         0.00000000
  -V(xc)+E(xc)   XCENC  =       519.42763018
  PAW double counting   =     20024.62483233   -19960.51491254
  entropy T*S    EENTRO =        -0.00000000
  eigenvalues    EBANDS =     -1283.67578098
  atomic energy  EATOM  =     10184.52279430
  Solvation  Ediel_sol  =         0.00000000
  ---------------------------------------------------
  free energy    TOTEN  =      -101.13037010 eV

  energy without entropy =     -101.13037010  energy(sigma->0) =     -101.13037010


--------------------------------------------------------------------------------------------------------




----------------------------------------- Iteration    1(  11)  ---------------------------------------


    POTLOK:  cpu time    0.1480: real time    0.1488
    SETDIJ:  cpu time    0.5240: real time    0.5236
     EDDAV:  cpu time    9.3920: real time    9.3961
       DOS:  cpu time    0.0000: real time    0.0005
    CHARGE:  cpu time    0.8520: real time    0.8532
    MIXING:  cpu time    0.0040: real time    0.0053
    --------------------------------------------
      LOOP:  cpu time   10.9200: real time   10.9280

 eigenvalue-minimisations  :  4032
 total energy-change (2. order) : 0.1521771E-02  (-0.1386919E-02)
 number of electron     128.0000001 magnetization 
 augmentation part        9.2501326 magnetization 

 Broyden mixing:
  rms(total) = 0.22205E-01    rms(broyden)= 0.22205E-01
  rms(prec ) = 0.25063E-01
  weight for this iteration     100.00

 eigenvalues of (default mixing * dielectric matrix)
  average eigenvalue GAMMA=   1.5895
  2.9094  2.6154  0.8240  0.8240  1.3883  0.9761

 Free energy of the ion-electron system (eV)
  ---------------------------------------------------
  alpha Z        PSCENC =       796.84035699
  Ewald energy   TEWEN  =     -8461.55223116
  -Hartree energ DENC   =     -1921.22092441
  -exchange      EXHF   =         0.00000000
  -V(xc)+E(xc)   XCENC  =       519.46740575
  PAW double counting   =     20207.83163317   -20144.46241689
  entropy T*S    EENTRO =        -0.00000000
  eigenvalues    EBANDS =     -1282.55546607
  atomic energy  EATOM  =     10184.52279430
  Solvation  Ediel_sol  =         0.00000000
  ---------------------------------------------------
  free energy    TOTEN  =      -101.12884833 eV

  energy without entropy =     -101.12884833  energy(sigma->0) =     -101.12884833


--------------------------------------------------------------------------------------------------------




----------------------------------------- Iteration    1(  12)  ---------------------------------------


    POTLOK:  cpu time    0.1520: real time    0.1495
    SETDIJ:  cpu time    0.5240: real time    0.5256
     EDDAV:  cpu time    8.9000: real time    8.9052
       DOS:  cpu time    0.0040: real time    0.0004
    CHARGE:  cpu time    0.8480: real time    0.8523
    MIXING:  cpu time    0.0080: real time    0.0054
    --------------------------------------------
      LOOP:  cpu time   10.4360: real time   10.4391

 eigenvalue-minimisations  :  3760
 total energy-change (2. order) :-0.1603367E-03  (-0.3246186E-03)
 number of electron     128.0000001 magnetization 
 augmentation part        9.2352129 magnetization 

 Broyden mixing:
  rms(total) = 0.11491E-01    rms(broyden)= 0.11490E-01
  rms(prec ) = 0.14165E-01
  weight for this iteration     100.00

 eigenvalues of (default mixing * dielectric matrix)
  average eigenvalue GAMMA=   1.5375
  2.8082  2.5421  1.7048  0.8196  0.8196  1.1324  0.9357

 Free energy of the ion-electron system (eV)
  ---------------------------------------------------
  alpha Z        PSCENC =       796.84035699
  Ewald energy   TEWEN  =     -8461.55223116
  -Hartree energ DENC   =     -1921.60567762
  -exchange      EXHF   =         0.00000000
  -V(xc)+E(xc)   XCENC  =       519.49608301
  PAW double counting   =     20220.05695315   -20156.80713326
  entropy T*S    EENTRO =        -0.00000000
  eigenvalues    EBANDS =     -1282.08015408
  atomic energy  EATOM  =     10184.52279430
  Solvation  Ediel_sol  =         0.00000000
  ---------------------------------------------------
  free energy    TOTEN  =      -101.12900867 eV

  energy without entropy =     -101.12900867  energy(sigma->0) =     -101.12900867


--------------------------------------------------------------------------------------------------------




----------------------------------------- Iteration    1(  13)  ---------------------------------------


    POTLOK:  cpu time    0.1480: real time    0.1479
    SETDIJ:  cpu time    0.5240: real time    0.5240
     EDDAV:  cpu time    7.8680: real time    7.8705
       DOS:  cpu time    0.0000: real time    0.0003
    CHARGE:  cpu time    0.8520: real time    0.8522
    MIXING:  cpu time    0.0040: real time    0.0056
    --------------------------------------------
      LOOP:  cpu time    9.3960: real time    9.4010

 eigenvalue-minimisations  :  3176
 total energy-change (2. order) : 0.3850674E-04  (-0.3162184E-04)
 number of electron     128.0000001 magnetization 
 augmentation part        9.2371709 magnetization 

 Broyden mixing:
  rms(total) = 0.87031E-02    rms(broyden)= 0.87031E-02
  rms(prec ) = 0.90025E-02
  weight for this iteration     100.00

 eigenvalues of (default mixing * dielectric matrix)
  average eigenvalue GAMMA=   1.4749
  2.8805  2.2314  1.7893  0.8204  0.8204  1.3386  0.9591  0.9591

 Free energy of the ion-electron system (eV)
  ---------------------------------------------------
  alpha Z        PSCENC =       796.84035699
  Ewald energy   TEWEN  =     -8461.55223116
  -Hartree energ DENC   =     -1921.61309863
  -exchange      EXHF   =         0.00000000
  -V(xc)+E(xc)   XCENC  =       519.49486820
  PAW double counting   =     20210.07692989   -20146.73872496
  entropy T*S    EENTRO =        -0.00000000
  eigenvalues    EBANDS =     -1282.15986479
  atomic energy  EATOM  =     10184.52279430
  Solvation  Ediel_sol  =         0.00000000
  ---------------------------------------------------
  free energy    TOTEN  =      -101.12897016 eV

  energy without entropy =     -101.12897016  energy(sigma->0) =     -101.12897016


--------------------------------------------------------------------------------------------------------




----------------------------------------- Iteration    1(  14)  ---------------------------------------


    POTLOK:  cpu time    0.1520: real time    0.1497
    SETDIJ:  cpu time    0.5200: real time    0.5232
     EDDAV:  cpu time    8.9040: real time    8.9074
       DOS:  cpu time    0.0000: real time    0.0004
    CHARGE:  cpu time    0.8560: real time    0.8552
    MIXING:  cpu time    0.0080: real time    0.0061
    --------------------------------------------
      LOOP:  cpu time   10.4400: real time   10.4424

 eigenvalue-minimisations  :  3760
 total energy-change (2. order) :-0.3978239E-06  (-0.2011368E-05)
 number of electron     128.0000001 magnetization 
 augmentation part        9.2376804 magnetization 

 Broyden mixing:
  rms(total) = 0.40602E-02    rms(broyden)= 0.40602E-02
  rms(prec ) = 0.43843E-02
  weight for this iteration     100.00

 eigenvalues of (default mixing * dielectric matrix)
  average eigenvalue GAMMA=   1.4601
  2.8813  2.2206  1.9322  1.4855  0.8210  0.8210  0.9615  1.0087  1.0087

 Free energy of the ion-electron system (eV)
  ---------------------------------------------------
  alpha Z        PSCENC =       796.84035699
  Ewald energy   TEWEN  =     -8461.55223116
  -Hartree energ DENC   =     -1921.67528223
  -exchange      EXHF   =         0.00000000
  -V(xc)+E(xc)   XCENC  =       519.49852110
  PAW double counting   =     20209.53762204   -20146.17523623
  entropy T*S    EENTRO =        -0.00000000
  eigenvalues    EBANDS =     -1282.12551537
  atomic energy  EATOM  =     10184.52279430
  Solvation  Ediel_sol  =         0.00000000
  ---------------------------------------------------
  free energy    TOTEN  =      -101.12897056 eV

  energy without entropy =     -101.12897056  energy(sigma->0) =     -101.12897056


--------------------------------------------------------------------------------------------------------




----------------------------------------- Iteration    1(  15)  ---------------------------------------


    POTLOK:  cpu time    0.1440: real time    0.1470
    SETDIJ:  cpu time    0.5240: real time    0.5234
     EDDAV:  cpu time    8.4320: real time    8.4332
       DOS:  cpu time    0.0000: real time    0.0004
    CHARGE:  cpu time    0.8560: real time    0.8559
    MIXING:  cpu time    0.0040: real time    0.0061
    --------------------------------------------
      LOOP:  cpu time    9.9600: real time    9.9666

 eigenvalue-minimisations  :  3496
 total energy-change (2. order) : 0.1170281E-05  (-0.5099664E-06)
 number of electron     128.0000001 magnetization 
 augmentation part        9.2383619 magnetization 

 Broyden mixing:
  rms(total) = 0.24549E-02    rms(broyden)= 0.24548E-02
  rms(prec ) = 0.25445E-02
  weight for this iteration     100.00

 eigenvalues of (default mixing * dielectric matrix)
  average eigenvalue GAMMA=   1.4157
  2.9070  2.1787  1.8056  1.8056  1.1847  0.8176  0.8176  0.9624  0.8388  0.8388

 Free energy of the ion-electron system (eV)
  ---------------------------------------------------
  alpha Z        PSCENC =       796.84035699
  Ewald energy   TEWEN  =     -8461.55223116
  -Hartree energ DENC   =     -1921.68458465
  -exchange      EXHF   =         0.00000000
  -V(xc)+E(xc)   XCENC  =       519.49877952
  PAW double counting   =     20206.11127022   -20142.72800234
  entropy T*S    EENTRO =        -0.00000000
  eigenvalues    EBANDS =     -1282.13735227
  atomic energy  EATOM  =     10184.52279430
  Solvation  Ediel_sol  =         0.00000000
  ---------------------------------------------------
  free energy    TOTEN  =      -101.12896939 eV

  energy without entropy =     -101.12896939  energy(sigma->0) =     -101.12896939


--------------------------------------------------------------------------------------------------------




----------------------------------------- Iteration    1(  16)  ---------------------------------------


    POTLOK:  cpu time    0.1480: real time    0.1480
    SETDIJ:  cpu time    0.5280: real time    0.5264
     EDDAV:  cpu time    8.8320: real time    8.8356
       DOS:  cpu time    0.0000: real time    0.0005
    CHARGE:  cpu time    0.8520: real time    0.8549
    MIXING:  cpu time    0.0080: real time    0.0060
    --------------------------------------------
      LOOP:  cpu time   10.3680: real time   10.3718

 eigenvalue-minimisations  :  3712
 total energy-change (2. order) : 0.5419315E-07  (-0.7342540E-07)
 number of electron     128.0000001 magnetization 
 augmentation part        9.2385652 magnetization 

 Broyden mixing:
  rms(total) = 0.12425E-02    rms(broyden)= 0.12425E-02
  rms(prec ) = 0.13496E-02
  weight for this iteration     100.00

 eigenvalues of (default mixing * dielectric matrix)
  average eigenvalue GAMMA=   1.4448
  2.8483  2.3425  1.8336  1.8336  1.5689  1.0482  0.9453  0.8209  0.8209  0.9153
  0.9153

 Free energy of the ion-electron system (eV)
  ---------------------------------------------------
  alpha Z        PSCENC =       796.84035699
  Ewald energy   TEWEN  =     -8461.55223116
  -Hartree energ DENC   =     -1921.69694228
  -exchange      EXHF   =         0.00000000
  -V(xc)+E(xc)   XCENC  =       519.49948595
  PAW double counting   =     20205.33842206   -20141.94886157
  entropy T*S    EENTRO =        -0.00000000
  eigenvalues    EBANDS =     -1282.13199361
  atomic energy  EATOM  =     10184.52279430
  Solvation  Ediel_sol  =         0.00000000
  ---------------------------------------------------
  free energy    TOTEN  =      -101.12896933 eV

  energy without entropy =     -101.12896933  energy(sigma->0) =     -101.12896933


--------------------------------------------------------------------------------------------------------




----------------------------------------- Iteration    1(  17)  ---------------------------------------


    POTLOK:  cpu time    0.1480: real time    0.1494
    SETDIJ:  cpu time    0.5240: real time    0.5232
     EDDAV:  cpu time    8.2520: real time    8.2540
       DOS:  cpu time    0.0000: real time    0.0006
    CHARGE:  cpu time    0.8480: real time    0.8493
    MIXING:  cpu time    0.0080: real time    0.0097
    --------------------------------------------
      LOOP:  cpu time    9.7800: real time    9.7867

 eigenvalue-minimisations  :  3384
 total energy-change (2. order) : 0.1213539E-06  (-0.7941539E-07)
 number of electron     128.0000001 magnetization 
 augmentation part        9.2388225 magnetization 

 Broyden mixing:
  rms(total) = 0.53091E-03    rms(broyden)= 0.53078E-03
  rms(prec ) = 0.54796E-03
  weight for this iteration     100.00

 eigenvalues of (default mixing * dielectric matrix)
  average eigenvalue GAMMA=   1.4242
  2.8104  2.3568  2.0957  2.0957  1.7079  1.0865  0.9240  0.8214  0.8214  0.8391
  0.8391  0.6922

 Free energy of the ion-electron system (eV)
  ---------------------------------------------------
  alpha Z        PSCENC =       796.84035699
  Ewald energy   TEWEN  =     -8461.55223116
  -Hartree energ DENC   =     -1921.69799508
  -exchange      EXHF   =         0.00000000
  -V(xc)+E(xc)   XCENC  =       519.49943137
  PAW double counting   =     20204.01087450   -20140.61466404
  entropy T*S    EENTRO =        -0.00000000
  eigenvalues    EBANDS =     -1282.13753608
  atomic energy  EATOM  =     10184.52279430
  Solvation  Ediel_sol  =         0.00000000
  ---------------------------------------------------
  free energy    TOTEN  =      -101.12896921 eV

  energy without entropy =     -101.12896921  energy(sigma->0) =     -101.12896921


--------------------------------------------------------------------------------------------------------




----------------------------------------- Iteration    1(  18)  ---------------------------------------


    POTLOK:  cpu time    0.1480: real time    0.1485
    SETDIJ:  cpu time    0.5240: real time    0.5247
     EDDAV:  cpu time    7.8120: real time    7.8162
       DOS:  cpu time    0.0000: real time    0.0006
    CHARGE:  cpu time    0.8520: real time    0.8529
    MIXING:  cpu time    0.0080: real time    0.0068
    --------------------------------------------
      LOOP:  cpu time    9.3480: real time    9.3503

 eigenvalue-minimisations  :  3136
 total energy-change (2. order) : 0.5678157E-07  (-0.1470978E-07)
 number of electron     128.0000001 magnetization 
 augmentation part        9.2389141 magnetization 

 Broyden mixing:
  rms(total) = 0.18600E-03    rms(broyden)= 0.18563E-03
  rms(prec ) = 0.19415E-03
  weight for this iteration     100.00

 eigenvalues of (default mixing * dielectric matrix)
  average eigenvalue GAMMA=   1.4478
  2.8118  2.3969  2.2826  2.2826  1.7772  1.1274  0.9168  0.9168  0.9458  0.8198
  0.8198  0.8618  0.8618

 Free energy of the ion-electron system (eV)
  ---------------------------------------------------
  alpha Z        PSCENC =       796.84035699
  Ewald energy   TEWEN  =     -8461.55223116
  -Hartree energ DENC   =     -1921.69953151
  -exchange      EXHF   =         0.00000000
  -V(xc)+E(xc)   XCENC  =       519.49950403
  PAW double counting   =     20203.83861896   -20140.44121225
  entropy T*S    EENTRO =        -0.00000000
  eigenvalues    EBANDS =     -1282.13726851
  atomic energy  EATOM  =     10184.52279430
  Solvation  Ediel_sol  =         0.00000000
  ---------------------------------------------------
  free energy    TOTEN  =      -101.12896916 eV

  energy without entropy =     -101.12896916  energy(sigma->0) =     -101.12896916


--------------------------------------------------------------------------------------------------------




----------------------------------------- Iteration    1(  19)  ---------------------------------------


    POTLOK:  cpu time    0.1480: real time    0.1481
    SETDIJ:  cpu time    0.5240: real time    0.5259
     EDDAV:  cpu time    6.2880: real time    6.2892
       DOS:  cpu time    0.0000: real time    0.0006
    CHARGE:  cpu time    0.8520: real time    0.8498
    MIXING:  cpu time    0.0080: real time    0.0097
    --------------------------------------------
      LOOP:  cpu time    7.8200: real time    7.8240

 eigenvalue-minimisations  :  2272
 total energy-change (2. order) : 0.2814522E-07  (-0.2179378E-08)
 number of electron     128.0000001 magnetization 
 augmentation part        9.2389419 magnetization 

 Broyden mixing:
  rms(total) = 0.87090E-04    rms(broyden)= 0.86303E-04
  rms(prec ) = 0.89259E-04
  weight for this iteration     100.00

 eigenvalues of (default mixing * dielectric matrix)
  average eigenvalue GAMMA=   1.4514
  2.8834  2.4795  2.4795  1.9996  1.9996  1.4127  0.8835  0.8835  0.8202  0.8202
  1.0363  0.9637  0.8291  0.8291

 Free energy of the ion-electron system (eV)
  ---------------------------------------------------
  alpha Z        PSCENC =       796.84035699
  Ewald energy   TEWEN  =     -8461.55223116
  -Hartree energ DENC   =     -1921.70034531
  -exchange      EXHF   =         0.00000000
  -V(xc)+E(xc)   XCENC  =       519.49954363
  PAW double counting   =     20203.78931464   -20140.39143979
  entropy T*S    EENTRO =        -0.00000000
  eigenvalues    EBANDS =     -1282.13696243
  atomic energy  EATOM  =     10184.52279430
  Solvation  Ediel_sol  =         0.00000000
  ---------------------------------------------------
  free energy    TOTEN  =      -101.12896913 eV

  energy without entropy =     -101.12896913  energy(sigma->0) =     -101.12896913


--------------------------------------------------------------------------------------------------------




----------------------------------------- Iteration    1(  20)  ---------------------------------------


    POTLOK:  cpu time    0.1480: real time    0.1478
    SETDIJ:  cpu time    0.5240: real time    0.5242
     EDDAV:  cpu time    5.4440: real time    5.4452
       DOS:  cpu time    0.0000: real time    0.0005
    CHARGE:  cpu time    0.8520: real time    0.8528
    MIXING:  cpu time    0.0080: real time    0.0067
    --------------------------------------------
      LOOP:  cpu time    6.9760: real time    6.9778

 eigenvalue-minimisations  :  1752
 total energy-change (2. order) : 0.2127672E-07  (-0.4938162E-09)
 number of electron     128.0000001 magnetization 
 augmentation part        9.2389456 magnetization 

 Broyden mixing:
  rms(total) = 0.14914E-04    rms(broyden)= 0.92755E-05
  rms(prec ) = 0.13728E-04
  weight for this iteration     100.00
  WARNING: grid for Broyden might be to small

 eigenvalues of (default mixing * dielectric matrix)
  average eigenvalue GAMMA=   1.4215
  2.9755  2.5450  2.5450  2.1265  1.7067  1.7067  0.8579  0.8579  0.8200  0.8200
  1.0312  0.9443  0.8425  0.8425  0.7012

 Free energy of the ion-electron system (eV)
  ---------------------------------------------------
  alpha Z        PSCENC =       796.84035699
  Ewald energy   TEWEN  =     -8461.55223116
  -Hartree energ DENC   =     -1921.70165452
  -exchange      EXHF   =         0.00000000
  -V(xc)+E(xc)   XCENC  =       519.49962242
  PAW double counting   =     20203.74432285   -20140.34610881
  entropy T*S    EENTRO =        -0.00000000
  eigenvalues    EBANDS =     -1282.13607118
  atomic energy  EATOM  =     10184.52279430
  Solvation  Ediel_sol  =         0.00000000
  ---------------------------------------------------
  free energy    TOTEN  =      -101.12896911 eV

  energy without entropy =     -101.12896911  energy(sigma->0) =     -101.12896911


--------------------------------------------------------------------------------------------------------




----------------------------------------- Iteration    1(  21)  ---------------------------------------


    POTLOK:  cpu time    0.1480: real time    0.1486
    SETDIJ:  cpu time    0.5240: real time    0.5245
     EDDAV:  cpu time    5.3440: real time    5.3471
       DOS:  cpu time    0.0000: real time    0.0003
    --------------------------------------------
      LOOP:  cpu time    6.0160: real time    6.0211

 eigenvalue-minimisations  :  1736
 total energy-change (2. order) : 0.7346898E-08  (-0.2106363E-09)
 number of electron     128.0000001 magnetization 
 augmentation part        9.2389456 magnetization 

 Free energy of the ion-electron system (eV)
  ---------------------------------------------------
  alpha Z        PSCENC =       796.84035699
  Ewald energy   TEWEN  =     -8461.55223116
  -Hartree energ DENC   =     -1921.70153821
  -exchange      EXHF   =         0.00000000
  -V(xc)+E(xc)   XCENC  =       519.49961527
  PAW double counting   =     20203.75728090   -20140.35914833
  entropy T*S    EENTRO =        -0.00000000
  eigenvalues    EBANDS =     -1282.13609885
  atomic energy  EATOM  =     10184.52279430
  Solvation  Ediel_sol  =         0.00000000
  ---------------------------------------------------
  free energy    TOTEN  =      -101.12896910 eV

  energy without entropy =     -101.12896910  energy(sigma->0) =     -101.12896910


--------------------------------------------------------------------------------------------------------




 average (electrostatic) potential at core
  the test charge radii are     1.1929  0.7215
  (the norm of the test charge is              1.0000)
       1 -36.2353       2 -36.2402       3 -36.3275       4 -36.1379       5 -36.3275
       6 -36.1379       7 -36.2402       8 -36.2353       9 -70.7750      10 -70.7697
      11 -70.7723      12 -70.7723      13 -70.7723      14 -70.7723      15 -70.7715
      16 -70.7724
 
 
 
 E-fermi :   1.6439     XC(G=0): -10.2981     alpha+bet :-12.1858


 k-point     1 :       0.0000    0.0000    0.0000
  band No.  band energies     occupation 
      1     -30.7361      2.00000
      2     -30.6347      2.00000
      3     -30.5923      2.00000
      4     -30.5709      2.00000
      5     -30.5663      2.00000
      6     -30.5267      2.00000
      7     -30.4722      2.00000
      8     -30.4520      2.00000
      9     -15.0405      2.00000
     10     -15.0343      2.00000
     11     -15.0343      2.00000
     12     -15.0326      2.00000
     13     -13.5296      2.00000
     14     -13.4839      2.00000
     15     -13.4662      2.00000
     16     -13.4650      2.00000
     17     -13.3661      2.00000
     18     -13.3646      2.00000
     19     -13.3259      2.00000
     20     -12.7552      2.00000
     21     -12.7537      2.00000
     22     -12.7517      2.00000
     23     -12.7469      2.00000
     24     -12.7443      2.00000
     25     -12.7417      2.00000
     26     -12.4670      2.00000
     27     -12.4640      2.00000
     28     -12.4559      2.00000
     29     -12.4462      2.00000
     30     -12.4456      2.00000
     31     -12.4392      2.00000
     32     -12.4320      2.00000
     33     -12.4301      2.00000
     34     -12.3484      2.00000
     35     -12.3374      2.00000
     36     -12.3235      2.00000
     37     -11.1679      2.00000
     38     -11.1679      2.00000
     39     -11.1655      2.00000
     40     -11.1505      2.00000
     41      -0.7275      2.00000
     42      -0.7250      2.00000
     43      -0.7248      2.00000
     44      -0.7232      2.00000
     45       0.3426      2.00000
     46       0.3433      2.00000
     47       0.3446      2.00000
     48       0.3451      2.00000
     49       0.3453      2.00000
     50       0.3460      2.00000
     51       0.3462      2.00000
     52       0.3489      2.00000
     53       1.0773      2.00000
     54       1.0783      2.00000
     55       1.0806      2.00000
     56       1.4200      2.00000
     57       1.4209      2.00000
     58       1.4235      2.00000
     59       1.4238      2.00000
     60       1.4242      2.00000
     61       1.4249      2.00000
     62       1.5058      2.00000
     63       1.5064      2.00000
     64       1.5080      2.00000
     65       4.6619      0.00000
     66       4.6662      0.00000
     67       4.6663      0.00000
     68       5.3614      0.00000
     69       7.6668      0.00000
     70       7.6672      0.00000
     71       7.6807      0.00000
     72       8.0050      0.00000
     73       8.0191      0.00000
     74       8.0303      0.00000
     75       8.0355      0.00000
     76       9.2927      0.00000

 k-point     2 :       0.2500    0.0000    0.0000
  band No.  band energies     occupation 
      1     -30.7205      2.00000
      2     -30.6336      2.00000
      3     -30.5990      2.00000
      4     -30.5737      2.00000
      5     -30.5621      2.00000
      6     -30.5329      2.00000
      7     -30.4774      2.00000
      8     -30.4533      2.00000
      9     -14.9090      2.00000
     10     -14.9025      2.00000
     11     -14.9014      2.00000
     12     -14.8755      2.00000
     13     -13.9968      2.00000
     14     -13.9829      2.00000
     15     -13.9776      2.00000
     16     -13.8602      2.00000
     17     -13.1141      2.00000
     18     -13.1060      2.00000
     19     -13.0886      2.00000
     20     -12.7165      2.00000
     21     -12.7149      2.00000
     22     -12.7073      2.00000
     23     -12.5665      2.00000
     24     -12.5590      2.00000
     25     -12.5585      2.00000
     26     -12.4973      2.00000
     27     -12.4953      2.00000
     28     -12.4768      2.00000
     29     -12.4589      2.00000
     30     -12.4469      2.00000
     31     -12.3705      2.00000
     32     -12.3621      2.00000
     33     -12.3584      2.00000
     34     -12.3395      2.00000
     35     -12.3353      2.00000
     36     -12.0432      2.00000
     37     -11.3355      2.00000
     38     -11.3341      2.00000
     39     -11.3191      2.00000
     40     -11.2686      2.00000
     41      -0.4800      2.00000
     42      -0.4434      2.00000
     43      -0.4367      2.00000
     44      -0.4344      2.00000
     45       0.4565      2.00000
     46       0.4588      2.00000
     47       0.4596      2.00000
     48       0.4877      2.00000
     49       0.4905      2.00000
     50       0.4967      2.00000
     51       0.4986      2.00000
     52       0.5014      2.00000
     53       0.8983      2.00000
     54       0.9007      2.00000
     55       0.9043      2.00000
     56       1.0362      2.00000
     57       1.1296      2.00000
     58       1.1391      2.00000
     59       1.1455      2.00000
     60       1.2599      2.00000
     61       1.2600      2.00000
     62       1.2612      2.00000
     63       1.3061      2.00000
     64       1.3065      2.00000
     65       5.1598      0.00000
     66       5.1683      0.00000
     67       5.1814      0.00000
     68       6.0726      0.00000
     69       7.5001      0.00000
     70       7.7604      0.00000
     71       7.7811      0.00000
     72       7.7812      0.00000
     73       7.8141      0.00000
     74       7.9915      0.00000
     75       8.0108      0.00000
     76       8.9294      0.00000

 k-point     3 :       0.5000    0.0000    0.0000
  band No.  band energies     occupation 
      1     -30.6997      2.00000
      2     -30.6324      2.00000
      3     -30.6149      2.00000
      4     -30.5741      2.00000
      5     -30.5477      2.00000
      6     -30.5476      2.00000
      7     -30.4826      2.00000
      8     -30.4546      2.00000
      9     -14.5670      2.00000
     10     -14.5471      2.00000
     11     -14.5390      2.00000
     12     -14.5191      2.00000
     13     -14.5147      2.00000
     14     -14.5073      2.00000
     15     -14.4399      2.00000
     16     -14.4309      2.00000
     17     -12.8915      2.00000
     18     -12.8608      2.00000
     19     -12.8417      2.00000
     20     -12.8197      2.00000
     21     -12.7957      2.00000
     22     -12.7627      2.00000
     23     -12.6541      2.00000
     24     -12.6494      2.00000
     25     -12.6240      2.00000
     26     -12.5752      2.00000
     27     -12.5639      2.00000
     28     -12.5382      2.00000
     29     -12.4453      2.00000
     30     -12.4385      2.00000
     31     -12.3617      2.00000
     32     -12.3481      2.00000
     33     -11.8760      2.00000
     34     -11.8043      2.00000
     35     -11.8006      2.00000
     36     -11.7639      2.00000
     37     -11.7591      2.00000
     38     -11.6891      2.00000
     39     -11.6170      2.00000
     40     -11.5336      2.00000
     41       0.1846      2.00000
     42       0.1867      2.00000
     43       0.2394      2.00000
     44       0.2397      2.00000
     45       0.2535      2.00000
     46       0.2620      2.00000
     47       0.2723      2.00000
     48       0.2773      2.00000
     49       0.7376      2.00000
     50       0.7449      2.00000
     51       0.7464      2.00000
     52       0.7468      2.00000
     53       0.7477      2.00000
     54       0.7531      2.00000
     55       0.8304      2.00000
     56       0.8549      2.00000
     57       0.8704      2.00000
     58       0.8709      2.00000
     59       0.8725      2.00000
     60       0.8728      2.00000
     61       0.8755      2.00000
     62       0.8759      2.00000
     63       0.8954      2.00000
     64       0.9171      2.00000
     65       6.3700      0.00000
     66       6.3838      0.00000
     67       6.4278      0.00000
     68       6.4532      0.00000
     69       6.5006      0.00000
     70       6.5107      0.00000
     71       7.3553      0.00000
     72       7.5125      0.00000
     73       7.6314      0.00000
     74       7.6416      0.00000
     75       8.7898      0.00000
     76       8.8305      0.00000

 k-point     4 :       0.0000    0.2500    0.0000
  band No.  band energies     occupation 
      1     -30.7179      2.00000
      2     -30.6436      2.00000
      3     -30.5897      2.00000
      4     -30.5756      2.00000
      5     -30.5621      2.00000
      6     -30.5328      2.00000
      7     -30.4723      2.00000
      8     -30.4583      2.00000
      9     -14.9078      2.00000
     10     -14.9019      2.00000
     11     -14.9010      2.00000
     12     -14.8767      2.00000
     13     -14.0009      2.00000
     14     -13.9818      2.00000
     15     -13.9730      2.00000
     16     -13.8624      2.00000
     17     -13.1253      2.00000
     18     -13.1035      2.00000
     19     -13.0812      2.00000
     20     -12.7141      2.00000
     21     -12.7078      2.00000
     22     -12.7071      2.00000
     23     -12.5788      2.00000
     24     -12.5637      2.00000
     25     -12.5593      2.00000
     26     -12.5118      2.00000
     27     -12.4986      2.00000
     28     -12.4954      2.00000
     29     -12.4414      2.00000
     30     -12.4265      2.00000
     31     -12.3755      2.00000
     32     -12.3645      2.00000
     33     -12.3581      2.00000
     34     -12.3440      2.00000
     35     -12.3205      2.00000
     36     -12.0347      2.00000
     37     -11.3358      2.00000
     38     -11.3340      2.00000
     39     -11.3235      2.00000
     40     -11.2683      2.00000
     41      -0.4816      2.00000
     42      -0.4445      2.00000
     43      -0.4392      2.00000
     44      -0.4290      2.00000
     45       0.4517      2.00000
     46       0.4580      2.00000
     47       0.4593      2.00000
     48       0.4903      2.00000
     49       0.4929      2.00000
     50       0.4978      2.00000
     51       0.4984      2.00000
     52       0.5031      2.00000
     53       0.8986      2.00000
     54       0.8995      2.00000
     55       0.9018      2.00000
     56       1.0364      2.00000
     57       1.1245      2.00000
     58       1.1390      2.00000
     59       1.1515      2.00000
     60       1.2598      2.00000
     61       1.2601      2.00000
     62       1.2618      2.00000
     63       1.3053      2.00000
     64       1.3080      2.00000
     65       5.1504      0.00000
     66       5.1698      0.00000
     67       5.1881      0.00000
     68       6.0724      0.00000
     69       7.5153      0.00000
     70       7.7336      0.00000
     71       7.7721      0.00000
     72       7.7837      0.00000
     73       7.8082      0.00000
     74       8.0036      0.00000
     75       8.0129      0.00000
     76       8.9224      0.00000

 k-point     5 :       0.2500    0.2500    0.0000
  band No.  band energies     occupation 
      1     -30.7135      2.00000
      2     -30.6413      2.00000
      3     -30.5885      2.00000
      4     -30.5719      2.00000
      5     -30.5673      2.00000
      6     -30.5403      2.00000
      7     -30.4711      2.00000
      8     -30.4590      2.00000
      9     -14.8758      2.00000
     10     -14.8685      2.00000
     11     -14.8682      2.00000
     12     -14.8658      2.00000
     13     -14.0841      2.00000
     14     -13.9231      2.00000
     15     -13.9156      2.00000
     16     -13.8953      2.00000
     17     -13.2789      2.00000
     18     -13.2788      2.00000
     19     -12.8463      2.00000
     20     -12.8437      2.00000
     21     -12.6997      2.00000
     22     -12.6960      2.00000
     23     -12.6289      2.00000
[...]
      7     -30.4759      2.00000
      8     -30.4614      2.00000
      9     -14.7090      2.00000
     10     -14.7072      2.00000
     11     -14.6812      2.00000
     12     -14.6789      2.00000
     13     -14.3142      2.00000
     14     -14.2964      2.00000
     15     -14.2466      2.00000
     16     -14.1918      2.00000
     17     -13.1970      2.00000
     18     -12.8192      2.00000
     19     -12.7893      2.00000
     20     -12.7873      2.00000
     21     -12.7803      2.00000
     22     -12.7718      2.00000
     23     -12.7677      2.00000
     24     -12.6665      2.00000
     25     -12.6097      2.00000
     26     -12.5808      2.00000
     27     -12.5108      2.00000
     28     -12.5011      2.00000
     29     -12.4842      2.00000
     30     -12.4840      2.00000
     31     -12.4690      2.00000
     32     -12.3567      2.00000
     33     -11.9900      2.00000
     34     -11.9745      2.00000
     35     -11.9518      2.00000
     36     -11.7427      2.00000
     37     -11.5281      2.00000
     38     -11.5246      2.00000
     39     -11.4747      2.00000
     40     -11.4652      2.00000
     41      -0.1826      2.00000
     42      -0.1819      2.00000
     43      -0.1087      2.00000
     44      -0.1074      2.00000
     45       0.4522      2.00000
     46       0.4818      2.00000
     47       0.4846      2.00000
     48       0.5362      2.00000
     49       0.6134      2.00000
     50       0.6264      2.00000
     51       0.6319      2.00000
     52       0.6431      2.00000
     53       0.7075      2.00000
     54       0.7086      2.00000
     55       0.8189      2.00000
     56       0.8195      2.00000
     57       0.8798      2.00000
     58       0.8899      2.00000
     59       0.9245      2.00000
     60       0.9365      2.00000
     61       1.0298      2.00000
     62       1.2050      2.00000
     63       1.2374      2.00000
     64       1.3401      2.00000
     65       5.7337      0.00000
     66       5.7901      0.00000
     67       6.2023      0.00000
     68       6.8639      0.00000
     69       7.0423      0.00000
     70       7.0538      0.00000
     71       7.2276      0.00000
     72       7.8113      0.00000
     73       7.8208      0.00000
     74       8.1671      0.00000
     75       8.1702      0.00000
     76       8.2446      0.00000

 k-point    17 :       0.5000   -0.2500    0.2500
  band No.  band energies     occupation 
      1     -30.6674      2.00000
      2     -30.6671      2.00000
      3     -30.5826      2.00000
      4     -30.5825      2.00000
      5     -30.5597      2.00000
      6     -30.5596      2.00000
      7     -30.4680      2.00000
      8     -30.4676      2.00000
      9     -14.4890      2.00000
     10     -14.4842      2.00000
     11     -14.4821      2.00000
     12     -14.4727      2.00000
     13     -14.4649      2.00000
     14     -14.4646      2.00000
     15     -14.4573      2.00000
     16     -14.4540      2.00000
     17     -13.0047      2.00000
     18     -12.9974      2.00000
     19     -12.9921      2.00000
     20     -12.9908      2.00000
     21     -12.7266      2.00000
     22     -12.7260      2.00000
     23     -12.6848      2.00000
     24     -12.6821      2.00000
     25     -12.6447      2.00000
     26     -12.6309      2.00000
     27     -12.6268      2.00000
     28     -12.6253      2.00000
     29     -12.4841      2.00000
     30     -12.4821      2.00000
     31     -12.4319      2.00000
     32     -12.4312      2.00000
     33     -11.6671      2.00000
     34     -11.6656      2.00000
     35     -11.6608      2.00000
     36     -11.6580      2.00000
     37     -11.6340      2.00000
     38     -11.6273      2.00000
     39     -11.6228      2.00000
     40     -11.5997      2.00000
     41      -0.0041      2.00000
     42       0.0037      2.00000
     43       0.0048      2.00000
     44       0.0133      2.00000
     45       0.1170      2.00000
     46       0.1180      2.00000
     47       0.1263      2.00000
     48       0.1283      2.00000
     49       0.6935      2.00000
     50       0.6990      2.00000
     51       0.7078      2.00000
     52       0.7116      2.00000
     53       0.7906      2.00000
     54       0.7921      2.00000
     55       0.7955      2.00000
     56       0.7973      2.00000
     57       1.0269      2.00000
     58       1.0474      2.00000
     59       1.0513      2.00000
     60       1.0646      2.00000
     61       1.2152      2.00000
     62       1.2273      2.00000
     63       1.2302      2.00000
     64       1.2406      2.00000
     65       6.4748      0.00000
     66       6.4767      0.00000
     67       6.4906      0.00000
     68       6.4918      0.00000
     69       7.5055      0.00000
     70       7.5793      0.00000
     71       7.6147      0.00000
     72       7.6790      0.00000
     73       7.7844      0.00000
     74       7.8424      0.00000
     75       7.8584      0.00000
     76       7.9508      0.00000

 k-point    18 :       0.0000    0.5000    0.5000
  band No.  band energies     occupation 
      1     -30.6824      2.00000
      2     -30.6353      2.00000
      3     -30.6196      2.00000
      4     -30.5729      2.00000
      5     -30.5683      2.00000
      6     -30.5249      2.00000
      7     -30.4995      2.00000
      8     -30.4517      2.00000
      9     -14.6761      2.00000
     10     -14.6634      2.00000
     11     -14.6623      2.00000
     12     -14.6589      2.00000
     13     -14.2401      2.00000
     14     -14.2377      2.00000
     15     -14.1732      2.00000
     16     -14.1709      2.00000
     17     -13.0707      2.00000
     18     -13.0682      2.00000
     19     -13.0646      2.00000
     20     -13.0645      2.00000
     21     -12.8187      2.00000
     22     -12.8144      2.00000
     23     -12.8143      2.00000
     24     -12.8133      2.00000
     25     -12.6022      2.00000
     26     -12.5620      2.00000
     27     -12.5552      2.00000
     28     -12.5549      2.00000
     29     -12.4499      2.00000
     30     -12.4498      2.00000
     31     -12.4389      2.00000
     32     -12.3967      2.00000
     33     -11.8508      2.00000
     34     -11.8457      2.00000
     35     -11.7809      2.00000
     36     -11.7752      2.00000
     37     -11.4521      2.00000
     38     -11.4498      2.00000
     39     -11.4441      2.00000
     40     -11.4191      2.00000
     41      -0.2335      2.00000
     42      -0.2261      2.00000
     43      -0.2233      2.00000
     44      -0.2205      2.00000
     45       0.1326      2.00000
     46       0.1328      2.00000
     47       0.3553      2.00000
     48       0.3553      2.00000
     49       0.4516      2.00000
     50       0.4565      2.00000
     51       0.4584      2.00000
     52       0.4593      2.00000
     53       1.0328      2.00000
     54       1.0653      2.00000
     55       1.0653      2.00000
     56       1.0657      2.00000
     57       1.0679      2.00000
     58       1.0695      2.00000
     59       1.0703      2.00000
     60       1.0962      2.00000
     61       1.3626      2.00000
     62       1.3627      2.00000
     63       1.3627      2.00000
     64       1.3648      2.00000
     65       5.7991      0.00000
     66       5.8003      0.00000
     67       7.3417      0.00000
     68       7.3553      0.00000
     69       7.4313      0.00000
     70       7.4561      0.00000
     71       7.4619      0.00000
     72       7.4892      0.00000
     73       7.5795      0.00000
     74       7.6159      0.00000
     75       7.6198      0.00000
     76       7.7197      0.00000


--------------------------------------------------------------------------------------------------------


 soft charge-density along one line, spin component           1
         0         1         2         3         4         5         6         7         8         9
 total charge-density along one line
 
 pseudopotential strength for first ion, spin component:           1
-11.809  -2.629  -0.000  -0.000   0.000  -0.000  -0.000   0.000
 -2.629  -1.832  -0.000  -0.000   0.000  -0.000  -0.000   0.000
 -0.000  -0.000 -15.129   0.000  -0.000 -14.842   0.000  -0.000
 -0.000  -0.000   0.000 -15.129  -0.000   0.000 -14.842  -0.000
  0.000   0.000  -0.000  -0.000 -15.129  -0.000  -0.000 -14.842
 -0.000  -0.000 -14.842   0.000  -0.000 -14.559   0.000  -0.000
 -0.000  -0.000   0.000 -14.842  -0.000   0.000 -14.559  -0.000
  0.000   0.000  -0.000  -0.000 -14.842  -0.000  -0.000 -14.559
 -0.000  -0.000   0.000   0.000  -0.000   0.000   0.000  -0.000
  0.000   0.000  -0.000  -0.000   0.000  -0.000  -0.000   0.000
 -0.000  -0.000   0.000  -0.000  -0.000   0.000  -0.000  -0.000
 -0.000  -0.000   0.000   0.000  -0.000   0.000   0.000  -0.000
  0.000   0.000   0.000  -0.000   0.000   0.000  -0.000   0.000
 -0.000  -0.000   0.000   0.000  -0.000   0.000   0.000  -0.000
  0.000   0.000  -0.000  -0.000   0.000  -0.000  -0.000   0.000
 -0.000  -0.000   0.000  -0.000  -0.000   0.000  -0.000  -0.000
 -0.000  -0.000   0.000   0.000  -0.000   0.000   0.000  -0.000
  0.000   0.000   0.000  -0.000   0.000   0.000  -0.000   0.000
 total augmentation occupancy for first ion, spin component:           1
  1.996  -0.015  -0.000  -0.000   0.000   0.000   0.000  -0.000   0.000  -0.000  -0.000   0.000   0.000  -0.000   0.000   0.000
 -0.015   0.595  -0.003  -0.003  -0.000   0.003   0.003  -0.000   0.004  -0.000  -0.000   0.004   0.000  -0.002   0.000   0.000
 -0.000  -0.003  11.949  -0.000   0.015 -10.274   0.000  -0.016   0.000  -0.009   0.002  -0.000   0.003  -0.000   0.005  -0.001
 -0.000  -0.003  -0.000  11.949   0.015   0.000 -10.274  -0.016  -0.000  -0.009  -0.003   0.000  -0.000   0.000   0.005   0.002
  0.000  -0.000   0.015   0.015  11.951  -0.016  -0.016 -10.275  -0.009  -0.000  -0.000  -0.009   0.000   0.005   0.000   0.000
  0.000   0.003 -10.274   0.000  -0.016  10.624  -0.000   0.016  -0.000   0.009  -0.002   0.000  -0.003   0.000  -0.005   0.001
  0.000   0.003   0.000 -10.274  -0.016  -0.000  10.624   0.016   0.000   0.009   0.003  -0.000   0.000  -0.000  -0.005  -0.002
 -0.000  -0.000  -0.016  -0.016 -10.275   0.016   0.016  10.625   0.009   0.000   0.000   0.009  -0.000  -0.005  -0.000  -0.000
  0.000   0.004   0.000  -0.000  -0.009  -0.000   0.000   0.009   2.475   0.008  -0.008   0.000   0.000  -1.346  -0.004   0.004
 -0.000  -0.000  -0.009  -0.009  -0.000   0.009   0.009   0.000   0.008   2.475  -0.000   0.008   0.000  -0.004  -1.346   0.000
 -0.000  -0.000   0.002  -0.003  -0.000  -0.002   0.003   0.000  -0.008  -0.000   9.113   0.004  -0.000   0.004   0.000  -5.030
  0.000   0.004  -0.000   0.000  -0.009   0.000  -0.000   0.009   0.000   0.008   0.004   2.475   0.007  -0.000  -0.004  -0.002
  0.000   0.000   0.003  -0.000   0.000  -0.003   0.000  -0.000   0.000   0.000  -0.000   0.007   9.113  -0.000  -0.000   0.000
 -0.000  -0.002  -0.000   0.000   0.005   0.000  -0.000  -0.005  -1.346  -0.004   0.004  -0.000  -0.000   0.732   0.002  -0.002
  0.000   0.000   0.005   0.005   0.000  -0.005  -0.005  -0.000  -0.004  -1.346   0.000  -0.004  -0.000   0.002   0.732  -0.000
  0.000   0.000  -0.001   0.002   0.000   0.001  -0.002  -0.000   0.004   0.000  -5.030  -0.002   0.000  -0.002  -0.000   2.780
 -0.000  -0.002   0.000  -0.000   0.005  -0.000   0.000  -0.005  -0.000  -0.004  -0.002  -1.346  -0.004   0.000   0.002   0.001
 -0.000  -0.000  -0.002   0.000  -0.000   0.001  -0.000   0.000  -0.000  -0.000   0.000  -0.004  -5.030   0.000   0.000   0.000


------------------------ aborting loop because EDIFF is reached ----------------------------------------


    CHARGE:  cpu time    0.8480: real time    0.8482
    FORLOC:  cpu time    0.0200: real time    0.0202
    FORNL :  cpu time    4.4720: real time    4.4764
    STRESS:  cpu time    8.8600: real time    8.8642
    FORCOR:  cpu time    0.1600: real time    0.1628
    FORHAR:  cpu time    0.0520: real time    0.0503
    MIXING:  cpu time    0.0080: real time    0.0068
    OFIELD:  cpu time    0.0000: real time    0.0000

  FORCE on cell =-STRESS in cart. coord.  units (eV):
  Direction    XX          YY          ZZ          XY          YZ          ZX
  --------------------------------------------------------------------------------------
  Alpha Z   796.84036   796.84036   796.84036
  Ewald   -2821.57416 -2819.99928 -2819.99928    -0.00000    -1.59574    -0.00000
  Hartree   640.20699   640.74697   640.74697     0.00000    -0.90030     0.00000
  E(xc)    -536.24513  -536.24191  -536.24191     0.00000    -0.00209     0.00000
  Local     284.66250   282.55472   282.55472     0.00004     2.53021     0.00004
  n-local  -605.06052  -605.33272  -604.89714    -1.32397     0.02518    -0.00007
  augment    80.64804    80.65432    80.65432    -0.00005    -0.00605    -0.00005
  Kinetic  2160.49948  2160.69377  2160.62978     3.26714    -0.07601     0.00051
  Fock        0.00000     0.00000     0.00000     0.00000     0.00000     0.00000
  -------------------------------------------------------------------------------------
  Total      -0.02244     0.10201     0.10201     0.00000    -0.02480    -0.00000
  in kB      -0.13284     0.60381     0.60381     0.00000    -0.14681    -0.00000
  external pressure =        0.36 kB  Pullay stress =        0.00 kB


 VOLUME and BASIS-vectors are now :
 -----------------------------------------------------------------------------
  energy-cutoff  :      800.00
  volume of cell :      270.68
      direct lattice vectors                 reciprocal lattice vectors
     0.000000000  5.134209980  5.134209980    -0.097385966  0.097385966  0.097385966
     5.134209980  0.000000000  5.134209980     0.097385966 -0.097385966  0.097385966
     5.134209980  5.134209980  0.000000000     0.097385966  0.097385966 -0.097385966

  length of vectors
     7.260869386  7.260869386  7.260869386     0.168677442  0.168677442  0.168677442


 FORCES acting on ions
    electron-ion (+dipol)            ewald-force                    non-local-force                 convergence-correction
 -----------------------------------------------------------------------------------------------
   0.124E+00 -.965E+00 -.965E+00   -.119E+00 0.946E+00 0.946E+00   -.245E-02 0.485E-02 0.485E-02   0.501E-05 0.122E-05 0.122E-05
   -.335E+00 0.257E+01 0.257E+01   0.311E+00 -.244E+01 -.244E+01   0.223E-01 -.953E-01 -.953E-01   0.160E-04 -.600E-06 -.600E-06
   0.392E-09 -.802E+01 0.226E+01   0.125E-13 0.757E+01 -.215E+01   0.000E+00 0.453E+00 -.838E-01   0.761E-12 0.140E-04 -.575E-05
   0.434E-09 0.291E+01 -.829E+01   0.142E-13 -.277E+01 0.788E+01   0.000E+00 -.108E+00 0.461E+00   0.115E-11 0.417E-05 -.181E-04
   0.408E-09 0.226E+01 -.802E+01   0.141E-13 -.215E+01 0.757E+01   0.000E+00 -.838E-01 0.453E+00   0.759E-12 -.575E-05 0.140E-04
   0.435E-09 -.829E+01 0.291E+01   0.156E-13 0.788E+01 -.277E+01   0.000E+00 0.461E+00 -.108E+00   0.116E-11 -.181E-04 0.417E-05
   0.335E+00 0.257E+01 0.257E+01   -.311E+00 -.244E+01 -.244E+01   -.223E-01 -.953E-01 -.953E-01   -.160E-04 -.600E-06 -.600E-06
   -.124E+00 -.965E+00 -.965E+00   0.119E+00 0.946E+00 0.946E+00   0.245E-02 0.485E-02 0.485E-02   -.501E-05 0.122E-05 0.122E-05
   -.883E-07 0.116E+02 0.116E+02   -.276E-13 -.115E+02 -.115E+02   0.000E+00 -.423E+00 -.423E+00   -.744E-10 -.379E-05 -.379E-05
   -.407E-07 -.332E+01 -.332E+01   -.155E-13 0.312E+01 0.312E+01   0.000E+00 0.306E+00 0.306E+00   0.357E-11 0.617E-06 0.617E-06
   -.210E+01 0.632E+00 -.122E+01   0.196E+01 -.607E+00 0.115E+01   0.211E+00 -.376E-01 0.946E-01   -.423E-06 -.683E-06 0.730E-06
   0.210E+01 -.122E+01 0.632E+00   -.196E+01 0.115E+01 -.607E+00   -.211E+00 0.946E-01 -.376E-01   0.423E-06 0.730E-06 -.683E-06
   -.210E+01 -.122E+01 0.632E+00   0.196E+01 0.115E+01 -.607E+00   0.211E+00 0.946E-01 -.376E-01   -.423E-06 0.730E-06 -.683E-06
   0.210E+01 0.632E+00 -.122E+01   -.196E+01 -.607E+00 0.115E+01   -.211E+00 -.376E-01 0.946E-01   0.423E-06 -.683E-06 0.730E-06
   -.760E-08 0.877E+00 0.877E+00   -.128E-13 -.803E+00 -.803E+00   0.163E-18 -.117E+00 -.117E+00   -.548E-11 0.570E-06 0.570E-06
   0.132E-07 -.759E+00 -.759E+00   -.143E-13 0.567E+00 0.567E+00   0.000E+00 0.299E+00 0.299E+00   0.894E-11 -.539E-06 -.539E-06
 -----------------------------------------------------------------------------------------------
   -.973E-08 -.721E+00 -.721E+00   0.176E-14 -.103E-13 0.588E-14   0.279E-16 0.721E+00 0.721E+00   0.211E-09 -.750E-05 -.750E-05
 
 
 POSITION                                       TOTAL-FORCE (eV/Angst)
 -----------------------------------------------------------------------------------
      0.00000      0.00000      0.00000         0.002077     -0.014608     -0.014608
      0.00000      2.56710      2.56710        -0.001111      0.031030      0.031030
      2.56710      0.00000      2.56710         0.000000      0.004178      0.030319
      2.56710      2.56710      5.13421         0.000000      0.030335      0.054128
      2.56710      2.56710      0.00000         0.000000      0.030319      0.004178
      2.56710      5.13421      2.56710         0.000000      0.054128      0.030335
      5.13421      2.56710      2.56710         0.001111      0.031030      0.031030
      5.13421      5.13421      5.13421        -0.002077     -0.014608     -0.014608
      2.56710      2.63782      2.63782        -0.000000     -0.353738     -0.353738
      2.56710      5.13421      5.13421        -0.000000      0.102363      0.102363
      5.13421      2.56710      5.13421         0.072192     -0.012116      0.029859
      5.13421      5.13421      7.70131        -0.072192      0.029859     -0.012116
      5.13421      5.13421      2.56710         0.072192      0.029859     -0.012116
      5.13421      7.70131      5.13421        -0.072192     -0.012116      0.029859
      7.70131      5.13421      5.13421         0.000000     -0.042382     -0.042382
      7.70131      7.70131      7.70131         0.000000      0.106467      0.106467
 -----------------------------------------------------------------------------------
    total drift:                               -0.000000      0.000006      0.000006


--------------------------------------------------------------------------------------------------------



  FREE ENERGIE OF THE ION-ELECTRON SYSTEM (eV)
  ---------------------------------------------------
  free  energy   TOTEN  =      -101.12896910 eV

  energy  without entropy=     -101.12896910  energy(sigma->0) =     -101.12896910
 


--------------------------------------------------------------------------------------------------------


    POTLOK:  cpu time    0.6720: real time    0.6741


--------------------------------------------------------------------------------------------------------


     LOOP+:  cpu time  209.1360: real time  209.2321
    4ORBIT:  cpu time    0.0000: real time    0.0000

 total amount of memory used by VASP on root node    97735. kBytes
========================================================================

   base      :      30000. kBytes
   nonl-proj :       9520. kBytes
   fftplans  :      26995. kBytes
   grid      :      11753. kBytes
   one-center:         31. kBytes
   wavefun   :      19436. kBytes
 
  
  
 General timing and accounting informations for this job:
 ========================================================
  
                  Total CPU time used (sec):      212.528
                            User time (sec):      211.044
                          System time (sec):        1.484
                         Elapsed time (sec):      212.634
  
                   Maximum memory used (kb):      201032.
                   Average memory used (kb):           0.
  
                          Minor page faults:       579005
                          Major page faults:            0
                 Voluntary context switches:           67
